# vtk DataFile Version 2.0
FOR TEST
ASCII
DATASET POLYDATA
POINTS 223 float
2.299999952316284 3.099999904632568 0.000000000000000
-2.299999952316284 3.000000000000000 0.000000000000000
-3.599999904632568 -1.200000047683716 0.000000000000000
0.000000000000000 -3.799999952316284 0.000000000000000
3.599999904632568 -1.200000047683716 0.000000000000000
0.000000000000000 10.000000000000000 0.000000000000000
9.510000228881836 3.089999914169312 0.000000000000000
5.880000114440918 -8.090000152587891 0.000000000000000
-5.880000114440918 -8.090000152587891 0.000000000000000
-9.510000228881836 3.089999914169312 0.000000000000000
-0.287499994039536 9.125000000000000 0.000000000000000
-0.574999988079071 8.250000000000000 0.000000000000000
-0.862500011920929 7.375000000000000 0.000000000000000
-1.149999976158142 6.500000000000000 0.000000000000000
-1.437500000000000 5.625000000000000 0.000000000000000
-1.725000023841858 4.750000000000000 0.000000000000000
-2.012500047683716 3.875000000000000 0.000000000000000
-3.233828067779541 3.011656999588013 0.000000000000000
-4.131371021270752 3.022860050201416 0.000000000000000
-4.994040012359619 3.033628940582275 0.000000000000000
-5.823190212249756 3.043978929519653 0.000000000000000
-6.620122909545898 3.053926944732666 0.000000000000000
-7.386089801788330 3.063488006591797 0.000000000000000
-8.122295379638672 3.072678089141846 0.000000000000000
-8.829895019531250 3.081510066986084 0.000000000000000
-8.952521324157715 2.685333013534546 0.000000000000000
-8.372505187988281 2.264306068420410 0.000000000000000
-7.769042015075684 1.826259016990662 0.000000000000000
-7.141181945800781 1.370502948760986 0.000000000000000
-6.487940788269043 0.896322309970856 0.000000000000000
-5.808290958404541 0.402972608804703 0.000000000000000
-5.101165771484375 -0.110321298241615 0.000000000000000
-4.365454196929932 -0.644366085529327 0.000000000000000
-3.884999990463257 -2.061249971389771 0.000000000000000
-4.170000076293945 -2.922499895095825 0.000000000000000
-4.454999923706055 -3.783750057220459 0.000000000000000
-4.739999771118164 -4.644999980926514 0.000000000000000
-5.025000095367432 -5.506249904632568 0.000000000000000
-5.309999942779541 -6.367499828338623 0.000000000000000
-5.594999790191650 -7.228750228881836 0.000000000000000
-5.144999980926514 -7.553750038146973 0.000000000000000
-4.409999847412109 -7.017499923706055 0.000000000000000
-3.674999952316284 -6.481249809265137 0.000000000000000
-2.940000057220459 -5.945000171661377 0.000000000000000
-2.204999923706055 -5.408750057220459 0.000000000000000
-1.470000028610229 -4.872499942779541 0.000000000000000
-0.735000014305115 -4.336249828338623 0.000000000000000
0.718172371387482 -4.323973178863525 0.000000000000000
1.392487049102783 -4.815947055816650 0.000000000000000
2.025620937347412 -5.277876853942871 0.000000000000000
2.620090961456299 -5.711596965789795 0.000000000000000
3.178256988525391 -6.118830204010010 0.000000000000000
3.702336072921753 -6.501194000244141 0.000000000000000
4.194409847259521 -6.860208034515381 0.000000000000000
4.656434059143066 -7.197296142578125 0.000000000000000
5.090241909027100 -7.513799190521240 0.000000000000000
5.497558116912842 -7.810974121093750 0.000000000000000
5.731706142425537 -7.641867160797119 0.000000000000000
5.573767185211182 -7.164587020874023 0.000000000000000
5.405556201934814 -6.656263828277588 0.000000000000000
5.226404190063477 -6.114879131317139 0.000000000000000
5.035600185394287 -5.538281917572021 0.000000000000000
4.832385063171387 -4.924181938171387 0.000000000000000
4.615953922271729 -4.270141124725342 0.000000000000000
4.385445117950439 -3.573559999465942 0.000000000000000
4.139944076538086 -2.831672906875610 0.000000000000000
3.878474950790405 -2.041532039642334 0.000000000000000
4.426373958587646 -0.600144684314728 0.000000000000000
5.310522079467773 0.041648250073195 0.000000000000000
6.256484985351562 0.728311181068420 0.000000000000000
7.268581867218018 1.462980985641479 0.000000000000000
8.351437568664551 2.249012947082520 0.000000000000000
8.096593856811523 3.091959953308105 0.000000000000000
6.775546073913574 3.093792915344238 0.000000000000000
5.540821075439453 3.095504999160767 0.000000000000000
4.386778831481934 3.097105979919434 0.000000000000000
3.308147907257080 3.098602056503296 0.000000000000000
2.012500047683716 3.962500095367432 0.000000000000000
1.725000023841858 4.824999809265137 0.000000000000000
1.437500000000000 5.687500000000000 0.000000000000000
1.149999976158142 6.550000190734863 0.000000000000000
0.862500011920929 7.412499904632568 0.000000000000000
0.574999988079071 8.274999618530273 0.000000000000000
0.287499994039536 9.137499809265137 0.000000000000000
2.982570171356201 -1.948159456253052 0.000000000000000
2.461205720901489 -0.876054286956787 0.000000000000000
-1.657564043998718 3.401253938674927 0.000000000000000
-1.507298231124878 2.538958549499512 0.000000000000000
-0.679606318473816 -3.683953762054443 0.000000000000000
-0.037736237049103 -3.119459152221680 0.000000000000000
-0.761713385581970 2.427841424942017 0.000000000000000
-0.875027775764465 1.514579176902771 0.000000000000000
0.001147150993347 1.835100293159485 0.000000000000000
-0.672850608825684 1.216418743133545 0.000000000000000
0.330914527177811 1.118596076965332 0.000000000000000
0.126162767410278 0.571146726608276 0.000000000000000
3.736693143844604 -3.447135448455811 0.000000000000000
2.579411745071411 2.086524009704590 0.000000000000000
-0.938511967658997 -0.077090859413147 0.000000000000000
-3.819812297821045 -0.017428517341614 0.000000000000000
-1.000535011291504 -2.664999246597290 0.000000000000000
1.496237635612488 -3.910880804061890 0.000000000000000
1.986073970794678 -1.906183481216431 0.000000000000000
-0.466970920562744 3.438925743103027 0.000000000000000
-4.543737411499023 2.140232324600220 0.000000000000000
-1.447414278984070 -3.190808773040771 0.000000000000000
4.227540016174316 -4.543587684631348 0.000000000000000
1.101091742515564 0.692661345005035 0.000000000000000
-0.225293278694153 -1.971309423446655 0.000000000000000
-3.046686887741089 -0.614485740661621 0.000000000000000
-1.759249925613403 1.646445989608765 0.000000000000000
0.696871161460876 4.879650115966797 0.000000000000000
2.708959579467773 -5.232910156250000 0.000000000000000
4.600017070770264 0.410446584224701 0.000000000000000
-3.826712369918823 -3.789062261581421 0.000000000000000
0.763781785964966 -0.306266367435455 0.000000000000000
-1.183894634246826 -1.544984102249146 0.000000000000000
2.572081089019775 -2.693753004074097 0.000000000000000
1.437361478805542 3.035891294479370 0.000000000000000
1.519624710083008 -2.618013381958008 0.000000000000000
1.316660165786743 1.423008561134338 0.000000000000000
1.921285629272461 0.887102484703064 0.000000000000000
-5.089110851287842 0.831945240497589 0.000000000000000
-6.334559440612793 2.371896743774414 0.000000000000000
4.815296649932861 -5.869755744934082 0.000000000000000
-0.849470555782318 4.862453460693359 0.000000000000000
-2.348968267440796 -4.300621509552002 0.000000000000000
4.931284427642822 2.343856334686279 0.000000000000000
-2.853040933609009 0.268407046794891 0.000000000000000
-3.194555759429932 0.841652393341064 0.000000000000000
3.644347429275513 -5.843334197998047 0.000000000000000
-2.883322715759277 -2.079323768615723 0.000000000000000
-0.464803040027618 6.547963619232178 0.000000000000000
-2.106358766555786 -0.806359648704529 0.000000000000000
-3.589399814605713 -5.454115867614746 0.000000000000000
1.084963560104370 -1.785823941230774 0.000000000000000
-0.415036976337433 -1.162375688552856 0.000000000000000
3.323252201080322 -0.253031134605408 0.000000000000000
3.044907569885254 0.513005733489990 0.000000000000000
0.386768609285355 -3.056070804595947 0.000000000000000
-2.372772693634033 -1.273271560668945 0.000000000000000
-2.593242168426514 2.007707357406616 0.000000000000000
1.884443759918213 2.329736948013306 0.000000000000000
0.676059186458588 2.725898265838623 0.000000000000000
4.718464374542236 -6.421486854553223 0.000000000000000
4.111962795257568 1.479445815086365 0.000000000000000
0.477833569049835 3.836843013763428 0.000000000000000
-7.171237468719482 2.007717609405518 0.000000000000000
1.940629482269287 -3.356906652450562 0.000000000000000
3.019173145294189 -3.387567043304443 0.000000000000000
0.478587031364441 -2.101152420043945 0.000000000000000
-1.600193500518799 0.164892137050629 0.000000000000000
6.309102058410645 2.310613393783569 0.000000000000000
2.245952129364014 -0.031267523765564 0.000000000000000
-5.704761028289795 1.365916967391968 0.000000000000000
3.133380413055420 -5.616838455200195 0.000000000000000
3.257628917694092 -4.917421817779541 0.000000000000000
2.808582305908203 -4.008193969726562 0.000000000000000
1.928408622741699 -4.473010063171387 0.000000000000000
3.450547695159912 -2.796917915344238 0.000000000000000
3.807309150695801 -4.002659320831299 0.000000000000000
4.327809333801270 -5.341688632965088 0.000000000000000
-3.985221385955811 2.442670822143555 0.000000000000000
-4.216281414031982 1.373256921768188 0.000000000000000
2.020989418029785 1.640322327613831 0.000000000000000
-4.234637260437012 0.103743195533752 0.000000000000000
-5.316424369812012 2.304326534271240 0.000000000000000
-2.334719419479370 -2.246043920516968 0.000000000000000
-3.292204856872559 -2.795491218566895 0.000000000000000
-2.500480651855469 -3.537095785140991 0.000000000000000
-0.879650950431824 3.859885215759277 0.000000000000000
-0.060644865036011 4.217590808868408 0.000000000000000
-0.674975633621216 5.866678714752197 0.000000000000000
0.633502125740051 6.149642944335938 0.000000000000000
-3.000742912292480 1.520436406135559 0.000000000000000
-2.895260572433472 -5.152276039123535 0.000000000000000
-3.813647270202637 -4.432860374450684 0.000000000000000
1.027440309524536 3.956423997879028 0.000000000000000
-1.245882511138916 -0.693971097469330 0.000000000000000
2.088828086853027 -0.810862362384796 0.000000000000000
-1.758645057678223 -4.002646446228027 0.000000000000000
5.093807697296143 1.243690729141235 0.000000000000000
-0.133966386318207 7.838839054107666 0.000000000000000
-6.619640350341797 1.688766956329346 0.000000000000000
-5.059450149536133 1.834376811981201 0.000000000000000
-4.329223155975342 -6.363680362701416 0.000000000000000
0.246100127696991 -1.058556556701660 0.000000000000000
7.299437046051025 2.672928094863892 0.000000000000000
-4.844223976135254 -6.901422977447510 0.000000000000000
5.279911041259766 -7.200485706329346 0.000000000000000
-0.258222281932831 4.902774333953857 0.000000000000000
-0.143612623214722 8.438319206237793 0.000000000000000
3.760341882705688 -5.467455387115479 0.000000000000000
-7.586672782897949 2.361771583557129 0.000000000000000
4.059492588043213 -6.284422397613525 0.000000000000000
3.541583061218262 2.614793539047241 0.000000000000000
1.692336082458496 0.052187800407410 0.000000000000000
0.021193385124207 2.649113178253174 0.000000000000000
2.265444040298462 -3.787544250488281 0.000000000000000
-3.034336090087891 -4.224510192871094 0.000000000000000
2.844577789306641 1.336121320724487 0.000000000000000
0.491828769445419 1.656563639640808 0.000000000000000
-1.336168527603149 0.779063463211060 0.000000000000000
-0.178306460380554 -0.577239692211151 0.000000000000000
-1.359062194824219 -2.015570402145386 0.000000000000000
3.229378700256348 -3.908495187759399 0.000000000000000
0.469920247793198 6.731671333312988 0.000000000000000
5.382949352264404 -7.544943809509277 0.000000000000000
-8.453697204589844 2.791254520416260 0.000000000000000
-5.624086856842041 1.702245831489563 0.000000000000000
-3.562079191207886 1.565160512924194 0.000000000000000
2.535749912261963 0.784408509731293 0.000000000000000
1.060510396957397 -3.004044532775879 0.000000000000000
0.494650363922119 4.232720375061035 0.000000000000000
-4.280366897583008 -5.029950141906738 0.000000000000000
1.173916339874268 -0.656586408615112 0.000000000000000
-2.750510215759277 0.573473215103149 0.000000000000000
-4.019159317016602 0.658923685550690 0.000000000000000
-1.382183790206909 -0.082611739635468 0.000000000000000
4.376570224761963 -5.630609989166260 0.000000000000000
-6.908436775207520 2.785681486129761 0.000000000000000
-2.460870742797852 -3.262605667114258 0.000000000000000
-1.479862451553345 -1.275704622268677 0.000000000000000

POLYGONS 360 1440
3 71 6 72
3 115 203 186
3 60 144 59
3 83 5 10
3 186 203 136
3 113 138 137
3 113 137 67
3 101 139 47
3 139 150 89
3 138 153 137
3 124 144 60
3 180 221 169
3 79 173 111
3 87 141 110
3 101 212 139
3 142 201 120
3 120 164 142
3 34 168 33
3 163 184 122
3 106 160 156
3 138 211 153
3 105 221 180
3 126 180 169
3 148 212 101
3 92 201 197
3 122 217 163
3 142 164 97
3 89 150 108
3 175 176 134
3 144 189 59
3 131 140 109
3 157 205 149
3 47 139 3
3 80 173 79
3 96 159 149
3 197 201 143
3 146 171 103
3 114 168 34
3 141 174 110
3 0 142 97
3 109 140 133
3 149 198 157
3 127 195 145
3 75 195 127
3 160 205 156
3 74 152 73
3 2 131 109
3 1 141 87
3 67 137 4
3 149 159 117
3 33 168 131
3 145 181 127
3 56 207 55
3 26 208 25
3 58 207 57
3 173 190 111
3 176 214 134
3 71 187 70
3 143 201 142
3 127 152 74
3 82 191 182
3 24 208 23
3 73 187 72
3 149 205 96
3 127 181 152
3 182 191 11
3 139 212 150
3 152 187 73
3 11 191 10
3 152 181 69
3 113 181 145
3 41 188 40
3 83 191 82
3 39 188 38
3 153 211 121
3 156 192 106
3 140 222 133
3 117 159 84
3 186 215 115
3 48 158 101
3 70 187 152
3 147 183 123
3 0 97 76
3 49 158 48
3 146 213 171
3 30 154 29
3 114 169 168
3 124 194 144
3 18 162 17
3 129 165 99
3 155 156 112
3 113 145 138
3 68 113 67
3 104 162 18
3 148 149 117
3 131 167 140
3 75 127 74
3 50 155 112
3 150 186 108
3 2 99 32
3 70 152 69
3 17 141 1
3 104 163 162
3 103 197 146
3 122 154 30
3 102 117 84
3 119 148 117
3 3 139 89
3 17 162 141
3 178 203 98
3 99 165 32
3 123 220 147
3 166 184 104
3 54 144 53
3 52 130 51
3 50 112 49
3 48 101 47
3 101 198 148
3 4 84 66
3 65 96 64
3 63 106 62
3 61 124 60
3 19 166 104
3 32 165 31
3 154 183 29
3 28 147 27
3 31 165 122
3 31 122 30
3 3 88 46
3 88 180 46
3 147 193 27
3 128 129 99
3 2 109 99
3 102 119 117
3 105 180 88
3 66 159 65
3 64 160 63
3 62 161 61
3 156 205 157
3 19 104 18
3 15 170 125
3 21 123 20
3 3 89 88
3 170 171 125
3 103 171 170
3 84 159 66
3 172 173 132
3 96 160 64
3 95 107 94
3 106 161 62
3 95 115 107
3 136 203 178
3 93 94 92
3 65 159 96
3 13 172 132
3 63 160 106
3 93 95 94
3 69 181 68
3 61 161 124
3 87 91 90
3 91 93 92
3 91 92 90
3 87 90 86
3 16 170 15
3 131 168 167
3 1 87 86
3 125 172 14
3 13 132 12
3 87 110 91
3 90 103 86
3 15 125 14
3 109 133 128
3 93 98 95
3 43 175 134
3 109 128 99
3 14 172 13
3 35 176 114
3 1 86 16
3 35 114 34
3 33 131 2
3 126 175 44
3 45 126 44
3 86 170 16
3 43 134 42
3 44 175 43
3 36 176 35
3 133 151 128
3 112 158 49
3 103 170 86
3 118 143 142
3 118 146 143
3 77 118 0
3 78 177 77
3 79 111 78
3 89 108 100
3 108 136 116
3 46 180 45
3 118 142 0
3 77 177 118
3 111 177 78
3 89 100 88
3 136 178 116
3 85 102 84
3 118 177 146
3 108 116 100
3 100 105 88
3 153 179 85
3 166 209 184
3 45 180 126
3 107 120 94
3 135 150 119
3 20 166 19
3 107 121 120
3 51 155 50
3 54 189 144
3 102 135 119
3 4 85 84
3 85 179 102
3 132 182 12
3 151 202 110
3 102 179 135
3 121 164 120
3 122 184 154
3 195 200 145
3 165 217 122
3 68 181 113
3 28 183 147
3 52 194 130
3 82 182 81
3 137 153 85
3 108 186 136
3 155 192 156
3 76 195 75
3 134 185 42
3 123 166 20
3 171 190 125
3 172 190 173
3 162 210 141
3 156 157 112
3 189 207 58
3 121 196 153
3 38 188 185
3 144 194 53
3 55 207 189
3 185 188 41
3 25 208 24
3 57 207 56
3 115 196 107
3 141 210 174
3 4 137 85
3 130 155 51
3 175 199 176
3 12 182 11
3 29 183 28
3 158 198 101
3 92 197 90
3 97 200 195
3 157 158 112
3 174 210 129
3 169 199 126
3 157 198 158
3 184 209 154
3 210 217 129
3 21 220 123
3 104 184 163
3 38 185 37
3 145 200 138
3 146 197 143
3 42 185 41
3 110 202 91
3 94 201 92
3 93 202 98
3 95 203 115
3 129 216 174
3 55 189 54
3 27 193 26
3 40 188 39
3 147 220 193
3 128 216 129
3 23 208 193
3 135 186 150
3 59 189 58
3 105 204 167
3 53 194 52
3 72 187 71
3 193 208 26
3 110 216 151
3 100 204 105
3 125 190 172
3 36 214 176
3 23 193 22
3 177 213 146
3 202 218 98
3 150 212 119
3 106 192 161
3 134 214 185
3 132 206 182
3 153 196 179
3 148 198 149
3 130 192 155
3 133 222 178
3 167 204 140
3 97 195 76
3 107 196 121
3 80 206 173
3 90 197 103
3 114 199 169
3 126 199 175
3 171 213 190
3 182 206 81
3 164 200 97
3 115 215 196
3 176 199 114
3 185 214 37
3 135 215 186
3 174 216 110
3 192 219 161
3 130 219 192
3 204 222 140
3 193 220 22
3 98 218 178
3 173 206 132
3 91 202 93
3 169 221 168
3 129 217 165
3 120 201 94
3 96 205 160
3 98 203 95
3 168 221 167
3 190 213 111
3 10 191 83
3 151 218 202
3 194 219 130
3 154 209 183
3 116 204 100
3 178 218 133
3 196 215 179
3 81 206 80
3 163 217 210
3 116 222 204
3 22 220 21
3 119 212 148
3 161 219 124
3 37 214 36
3 163 210 162
3 111 213 177
3 167 221 105
3 133 218 151
3 151 216 128
3 121 211 164
3 123 209 166
3 179 215 135
3 178 222 116
3 183 209 123
3 124 219 194
3 164 211 200
3 200 211 138
3 7 57 56
3 39 8 40
3 9 25 24

CELL_DATA 360
SCALARS pressure float 1
LOOKUP_TABLE default
19.999998092651367
12.865982055664062
19.998844146728516
5.596643447875977
4.824984550476074
19.99595832824707
19.99595832824707
18.08932113647461
7.37142276763916
19.909570693969727
19.997371673583984
-18.847028732299805
17.863866806030273
-18.129169464111328
18.08932113647461
19.097713470458984
17.319019317626953
-19.99045181274414
-19.991294860839844
19.99148941040039
19.909570693969727
-17.903608322143555
-19.638731002807617
19.19167709350586
0.022943010553717613
-19.99847984313965
19.097713470458984
-0.7543666362762451
-19.878116607666016
19.996810913085938
-19.875181198120117
19.85512924194336
12.315519332885742
16.35508155822754
19.977293014526367
0.42380425333976746
8.890138626098633
-19.981033325195312
-19.777578353881836
19.6019287109375
-19.909893035888672
19.90480613708496
19.99791717529297
19.993810653686523
19.980281829833984
19.999385833740234
-19.970157623291016
-19.6019287109375
19.994281768798828
19.90480613708496
-19.983118057250977
19.989276885986328
19.99932861328125
-19.999998092651367
19.99942398071289
11.20918083190918
-19.98052978515625
19.999998092651367
11.779029846191406
19.99791717529297
10.380435943603516
-19.999998092651367
19.99994659423828
19.90480613708496
19.99791717529297
-2.6634132862091064
7.37142276763916
19.999868392944336
-10.380435943603516
19.999868392944336
19.99595832824707
-19.994091033935547
5.596643447875977
-19.999448776245117
19.556989669799805
19.940860748291016
-19.65538215637207
19.76801872253418
4.824984550476074
17.67433738708496
19.999980926513672
-19.999977111816406
19.6019287109375
19.315874099731445
8.890138626098633
-19.9996395111084
-19.981033325195312
19.997371673583984
-19.98968505859375
-19.93292236328125
19.924209594726562
19.99595832824707
19.9990234375
-19.9954776763916
19.19167709350586
-19.875181198120117
19.993810653686523
19.789146423339844
8.902226448059082
-19.970157623291016
19.999980926513672
-19.93798065185547
-19.9954776763916
-8.714972496032715
-19.99847984313965
19.260608673095703
18.172643661499023
0.0
-19.93798065185547
-16.9424991607666
-19.980770111083984
-19.999874114990234
-19.999034881591797
19.99639129638672
19.975679397583008
19.789146423339844
17.67433738708496
18.08932113647461
19.970157623291016
19.98986053466797
19.99608612060547
19.998308181762695
-19.99816131591797
-19.993539810180664
-19.999557495117188
-19.999975204467773
-19.998516082763672
-19.998516082763672
0.0
-11.825267791748047
-19.999977111816406
-19.867414474487305
-19.970157623291016
19.260608673095703
-17.903608322143555
19.98289680480957
19.993793487548828
19.997461318969727
19.940860748291016
-19.99816131591797
-18.769245147705078
-19.999927520751953
0.0
-14.12488842010498
-8.714972496032715
19.89759635925293
-11.76486587524414
19.977293014526367
2.5099525451660156
19.99148941040039
2.5099525451660156
-7.854823112487793
-11.737037658691406
19.98986053466797
-16.35508155822754
19.99608612060547
-11.737037658691406
19.999853134155273
19.998308181762695
-18.129169464111328
-14.078392028808594
-14.078392028808594
-18.129169464111328
-19.298002243041992
-19.875181198120117
-19.6019287109375
-13.815855979919434
-16.35508155822754
-18.129169464111328
-12.84170150756836
-18.769245147705078
-19.909893035888672
-11.737037658691406
-19.888519287109375
-19.909893035888672
-17.863866806030273
-19.994600296020508
-19.6019287109375
-19.994600296020508
-19.983118057250977
-19.638731002807617
-17.991548538208008
-18.597766876220703
-19.888519287109375
-19.51963233947754
-19.996946334838867
-19.416397094726562
19.82332992553711
-8.714972496032715
17.86330795288086
17.86330795288086
19.298002243041992
18.769245147705078
17.863866806030273
-0.7543666362762451
-4.43114709854126
-12.522295951843262
17.86330795288086
19.298002243041992
12.04755973815918
-0.7543666362762451
-7.854823112487793
19.710844039916992
17.86330795288086
-4.43114709854126
-15.23637580871582
19.556989669799805
-19.999034881591797
-17.991548538208008
16.0178165435791
15.900650024414062
-19.999649047851562
16.0178165435791
19.93070411682129
19.99639129638672
19.260608673095703
19.970157623291016
19.710844039916992
-8.679814338684082
-18.4339542388916
19.260608673095703
19.160463333129883
-19.99847984313965
19.96646499633789
-19.991609573364258
19.9990234375
-19.999975204467773
19.975679397583008
10.380435943603516
19.948123931884766
-4.43114709854126
19.924209594726562
19.946535110473633
-19.969518661499023
-19.999874114990234
-1.2114125490188599
-11.76486587524414
-19.986183166503906
19.940860748291016
19.99896240234375
19.160463333129883
-19.9990234375
19.996810913085938
19.998483657836914
-19.99305534362793
-19.999998092651367
19.99957847595215
12.865982055664062
-19.777578353881836
19.970157623291016
19.97269058227539
-19.878116607666016
-13.950870513916016
-19.999906539916992
19.17209243774414
0.022943010553717613
19.77137565612793
19.85512924194336
-19.901241302490234
-19.732542037963867
19.85512924194336
-19.99838638305664
-19.967809677124023
-19.999927520751953
-19.9954776763916
-19.9990234375
19.989276885986328
8.890138626098633
-19.97431182861328
-18.8483829498291
6.386845588684082
-11.737037658691406
2.5099525451660156
-19.93292236328125
19.998483657836914
-19.99999237060547
-19.998641967773438
-19.999977111816406
-19.867414474487305
-19.999996185302734
15.900650024414062
19.99919319152832
-17.903608322143555
19.99090576171875
19.999996185302734
-19.999988555908203
-18.8483829498291
-15.23637580871582
-13.815855979919434
-19.996946334838867
-19.999996185302734
15.45759391784668
-17.41497802734375
8.902226448059082
19.99148941040039
-19.969518661499023
-8.679814338684082
19.556989669799805
19.19167709350586
19.97269058227539
-19.416397094726562
-19.62838363647461
19.77137565612793
16.0178165435791
16.35508155822754
-12.84170150756836
-19.981033325195312
-19.638731002807617
-1.2114125490188599
-2.6634132862091064
19.30961799621582
12.865982055664062
-19.98052978515625
-19.99305534362793
15.900650024414062
-19.901241302490234
19.97834014892578
19.97269058227539
-17.523508071899414
-19.999988555908203
-14.690756797790527
11.20918083190918
-14.078392028808594
-19.732542037963867
-19.93292236328125
17.319019317626953
19.977293014526367
-14.690756797790527
-19.944805145263672
-5.052640438079834
-5.596643447875977
-18.4339542388916
19.98809051513672
-19.999557495117188
-16.573514938354492
-16.9424991607666
18.68888282775879
13.950870513916016
-19.991294860839844
-16.573514938354492
-19.999984741210938
18.172643661499023
19.9930362701416
-19.998271942138672
-19.991294860839844
12.04755973815918
-19.62838363647461
-19.416397094726562
-18.4339542388916
19.160463333129883
-19.999874114990234
19.39588737487793
-16.9424991607666
-19.999927520751953
19.997371673583984
19.30961799621582
19.865158081054688
19.99968719482422
-19.999448776245117
-20.0
