# vtk DataFile Version 2.0
FOR TEST
ASCII
DATASET POLYDATA
POINTS 660 float
-2.240000009536743 3.089999914169312 0.000000000000000
2.240000009536743 3.089999914169312 0.000000000000000
3.640000104904175 -1.169999957084656 0.000000000000000
-3.630000114440918 -1.179999947547913 0.000000000000000
0.000000000000000 -3.819999933242798 0.000000000000000
0.000000000000000 10.000000000000000 0.000000000000000
9.510000228881836 3.089999914169312 0.000000000000000
5.880000114440918 -8.090000152587891 0.000000000000000
-5.880000114440918 -8.090000152587891 0.000000000000000
-9.510000228881836 3.089999914169312 0.000000000000000
-0.149333298206329 9.539333343505859 0.000000000000000
-0.298666685819626 9.078666687011719 0.000000000000000
-0.448000013828278 8.618000030517578 0.000000000000000
-0.597333312034607 8.157333374023438 0.000000000000000
-0.746666729450226 7.696667194366455 0.000000000000000
-0.896000027656555 7.236000061035156 0.000000000000000
-1.045333027839661 6.775332927703857 0.000000000000000
-1.194666981697083 6.314667224884033 0.000000000000000
-1.343999981880188 5.854000091552734 0.000000000000000
-1.493332982063293 5.393332958221436 0.000000000000000
-1.642667055130005 4.932666778564453 0.000000000000000
-1.792000055313110 4.472000122070312 0.000000000000000
-1.941333055496216 4.011332988739014 0.000000000000000
-2.090667009353638 3.550667047500610 0.000000000000000
-2.724667072296143 3.089999914169312 0.000000000000000
-3.209332942962646 3.089999914169312 0.000000000000000
-3.694000005722046 3.089999914169312 0.000000000000000
-4.178667068481445 3.089999914169312 0.000000000000000
-4.663332939147949 3.089999914169312 0.000000000000000
-5.147999763488770 3.089999914169312 0.000000000000000
-5.632667064666748 3.089999914169312 0.000000000000000
-6.117332935333252 3.089999914169312 0.000000000000000
-6.602000236511230 3.089999914169312 0.000000000000000
-7.086667060852051 3.089999914169312 0.000000000000000
-7.571332931518555 3.089999914169312 0.000000000000000
-8.055999755859375 3.089999914169312 0.000000000000000
-8.540666580200195 3.089999914169312 0.000000000000000
-9.025333404541016 3.089999914169312 0.000000000000000
-9.118000030517578 2.805332899093628 0.000000000000000
-8.725999832153320 2.520667076110840 0.000000000000000
-8.333999633789062 2.236000061035156 0.000000000000000
-7.941999912261963 1.951333045959473 0.000000000000000
-7.550000190734863 1.666666984558105 0.000000000000000
-7.157999992370605 1.381999969482422 0.000000000000000
-6.765999794006348 1.097332954406738 0.000000000000000
-6.374000072479248 0.812666714191437 0.000000000000000
-5.981999874114990 0.527999997138977 0.000000000000000
-5.590000152587891 0.243333294987679 0.000000000000000
-5.197999954223633 -0.041333328932524 0.000000000000000
-4.806000232696533 -0.326000005006790 0.000000000000000
-4.414000034332275 -0.610666692256927 0.000000000000000
-4.021999835968018 -0.895333290100098 0.000000000000000
-3.779999971389771 -1.640666961669922 0.000000000000000
-3.930000066757202 -2.101332902908325 0.000000000000000
-4.079999923706055 -2.562000036239624 0.000000000000000
-4.230000019073486 -3.022666931152344 0.000000000000000
-4.380000114440918 -3.483333110809326 0.000000000000000
-4.530000209808350 -3.944000005722046 0.000000000000000
-4.679999828338623 -4.404666900634766 0.000000000000000
-4.829999923706055 -4.865333080291748 0.000000000000000
-4.980000019073486 -5.326000213623047 0.000000000000000
-5.130000114440918 -5.786666870117188 0.000000000000000
-5.280000209808350 -6.247333049774170 0.000000000000000
-5.429999828338623 -6.708000183105469 0.000000000000000
-5.579999923706055 -7.168666839599609 0.000000000000000
-5.730000019073486 -7.629333019256592 0.000000000000000
-5.487999916076660 -7.805333137512207 0.000000000000000
-5.096000194549561 -7.520667076110840 0.000000000000000
-4.703999996185303 -7.236000061035156 0.000000000000000
-4.311999797821045 -6.951333045959473 0.000000000000000
-3.920000076293945 -6.666666984558105 0.000000000000000
-3.528000116348267 -6.381999969482422 0.000000000000000
-3.135999917984009 -6.097332954406738 0.000000000000000
-2.743999958038330 -5.812666893005371 0.000000000000000
-2.351999998092651 -5.527999877929688 0.000000000000000
-1.960000038146973 -5.243332862854004 0.000000000000000
-1.567999958992004 -4.958666801452637 0.000000000000000
-1.175999999046326 -4.673999786376953 0.000000000000000
-0.783999979496002 -4.389332771301270 0.000000000000000
-0.391999989748001 -4.104667186737061 0.000000000000000
0.391999989748001 -4.104667186737061 0.000000000000000
0.783999979496002 -4.389332771301270 0.000000000000000
1.175999999046326 -4.673999786376953 0.000000000000000
1.567999958992004 -4.958666801452637 0.000000000000000
1.960000038146973 -5.243332862854004 0.000000000000000
2.351999998092651 -5.527999877929688 0.000000000000000
2.743999958038330 -5.812666893005371 0.000000000000000
3.135999917984009 -6.097332954406738 0.000000000000000
3.528000116348267 -6.381999969482422 0.000000000000000
3.920000076293945 -6.666666984558105 0.000000000000000
4.311999797821045 -6.951333045959473 0.000000000000000
4.703999996185303 -7.236000061035156 0.000000000000000
5.096000194549561 -7.520667076110840 0.000000000000000
5.487999916076660 -7.805333137512207 0.000000000000000
5.730667114257812 -7.628666877746582 0.000000000000000
5.581333160400391 -7.167333126068115 0.000000000000000
5.432000160217285 -6.705999851226807 0.000000000000000
5.282667160034180 -6.244667053222656 0.000000000000000
5.133333206176758 -5.783332824707031 0.000000000000000
4.984000205993652 -5.322000026702881 0.000000000000000
4.834667205810547 -4.860667228698730 0.000000000000000
4.685332775115967 -4.399333000183105 0.000000000000000
4.535999774932861 -3.937999963760376 0.000000000000000
4.386666774749756 -3.476666927337646 0.000000000000000
4.237332820892334 -3.015332937240601 0.000000000000000
4.087999820709229 -2.553999900817871 0.000000000000000
3.938667058944702 -2.092667102813721 0.000000000000000
3.789333105087280 -1.631332993507385 0.000000000000000
4.031332969665527 -0.885999977588654 0.000000000000000
4.422667026519775 -0.601999998092651 0.000000000000000
4.814000129699707 -0.317999988794327 0.000000000000000
5.205333232879639 -0.034000001847744 0.000000000000000
5.596666812896729 0.250000000000000 0.000000000000000
5.987999916076660 0.533999979496002 0.000000000000000
6.379333019256592 0.818000018596649 0.000000000000000
6.770667076110840 1.101999998092651 0.000000000000000
7.162000179290771 1.386000037193298 0.000000000000000
7.553332805633545 1.669999957084656 0.000000000000000
7.944666862487793 1.953999996185303 0.000000000000000
8.336000442504883 2.237999916076660 0.000000000000000
8.727333068847656 2.522000074386597 0.000000000000000
9.118666648864746 2.805999994277954 0.000000000000000
9.025333404541016 3.089999914169312 0.000000000000000
8.540666580200195 3.089999914169312 0.000000000000000
8.055999755859375 3.089999914169312 0.000000000000000
7.571332931518555 3.089999914169312 0.000000000000000
7.086667060852051 3.089999914169312 0.000000000000000
6.602000236511230 3.089999914169312 0.000000000000000
6.117332935333252 3.089999914169312 0.000000000000000
5.632667064666748 3.089999914169312 0.000000000000000
5.147999763488770 3.089999914169312 0.000000000000000
4.663332939147949 3.089999914169312 0.000000000000000
4.178667068481445 3.089999914169312 0.000000000000000
3.694000005722046 3.089999914169312 0.000000000000000
3.209332942962646 3.089999914169312 0.000000000000000
2.724667072296143 3.089999914169312 0.000000000000000
2.090667009353638 3.550667047500610 0.000000000000000
1.941333055496216 4.011332988739014 0.000000000000000
1.792000055313110 4.472000122070312 0.000000000000000
1.642667055130005 4.932666778564453 0.000000000000000
1.493332982063293 5.393332958221436 0.000000000000000
1.343999981880188 5.854000091552734 0.000000000000000
1.194666981697083 6.314667224884033 0.000000000000000
1.045333027839661 6.775332927703857 0.000000000000000
0.896000027656555 7.236000061035156 0.000000000000000
0.746666729450226 7.696667194366455 0.000000000000000
0.597333312034607 8.157333374023438 0.000000000000000
0.448000013828278 8.618000030517578 0.000000000000000
0.298666685819626 9.078666687011719 0.000000000000000
0.149333298206329 9.539333343505859 0.000000000000000
3.325796604156494 -1.415990352630615 0.000000000000000
3.293615341186523 -0.962857723236084 0.000000000000000
-2.706294298171997 2.514981031417847 0.000000000000000
-1.931938648223877 2.732334375381470 0.000000000000000
-3.319366931915283 -1.488271355628967 0.000000000000000
-3.089331150054932 -1.228461503982544 0.000000000000000
2.965150833129883 -1.553300857543945 0.000000000000000
2.686710357666016 -0.932772755622864 0.000000000000000
-2.939363002777100 -1.574875950813293 0.000000000000000
-2.666551113128662 -0.831995964050293 0.000000000000000
1.899279117584229 3.214713096618652 0.000000000000000
1.773829460144043 2.690091371536255 0.000000000000000
2.322217226028442 -1.227678537368774 0.000000000000000
2.355341911315918 -0.963225126266479 0.000000000000000
-2.388535499572754 -1.394145131111145 0.000000000000000
-2.317089319229126 -0.950668394565582 0.000000000000000
1.958062648773193 -1.334403157234192 0.000000000000000
1.750410795211792 -0.674079418182373 0.000000000000000
1.541718482971191 -1.115775704383850 0.000000000000000
1.248689651489258 -0.633228421211243 0.000000000000000
1.353790044784546 2.723889589309692 0.000000000000000
3.462580442428589 2.792725563049316 0.000000000000000
-1.813770294189453 -1.180780172348022 0.000000000000000
-1.822483539581299 -0.869901418685913 0.000000000000000
-4.345921516418457 -0.261399835348129 0.000000000000000
2.586903572082520 -0.358979582786560 0.000000000000000
2.488772869110107 -1.699556350708008 0.000000000000000
-2.622537374496460 -1.675435781478882 0.000000000000000
-1.391406059265137 4.642547130584717 0.000000000000000
-2.597136974334717 -0.469857901334763 0.000000000000000
[...]
CELL_DATA 1168
SCALARS pressure float 1
LOOKUP_TABLE default
19.993288040161133
2.964660882949829
20.0
-19.99957847595215
-20.0
19.99968719482422
14.088421821594238
16.958314895629883
18.23894500732422
19.76584243774414
5.909465789794922
-8.029935836791992
19.998180389404297
-19.999927520751953
19.124820709228516
17.47872543334961
-19.771446228027344
-19.724824905395508
19.993288040161133
13.656026840209961
19.980979919433594
-19.559022903442383
-19.879419326782227
18.940757751464844
14.088421821594238
-19.952619552612305
19.996593475341797
18.18054962158203
19.855396270751953
11.885650634765625
-0.2200419306755066
-19.883514404296875
19.998764038085938
-19.37311363220215
19.76584243774414
-4.740884780883789
-19.99999237060547
16.88268280029297
12.144695281982422
19.99730110168457
-19.986696243286133
19.99999237060547
19.91710090637207
-18.589824676513672
11.885650634765625
19.855396270751953
-19.996204376220703
-19.933841705322266
19.99723243713379
17.29962921142578
-19.37068748474121
-3.917353630065918
-19.195812225341797
-19.975543975830078
-19.3980712890625
19.994937896728516
19.974578857421875
8.656721115112305
-19.43967628479004
-7.461662292480469
19.984039306640625
-15.265596389770508
-13.178274154663086
-19.80776596069336
18.704376220703125
7.44467830657959
-19.873191833496094
19.994056701660156
-3.1005210876464844
19.86688232421875
-19.43011474609375
18.297035217285156
-19.961101531982422
19.934873580932617
-19.994138717651367
14.810514450073242
19.633275985717773
-17.621740341186523
-16.6917724609375
19.93134117126465
16.45799446105957
16.747385025024414
-19.97475814819336
0.3227001428604126
17.909204483032227
19.964773178100586
19.997472763061523
19.991168975830078
-18.823083877563477
-19.982168197631836
-19.779294967651367
-19.44151496887207
19.996065139770508
19.999553680419922
-19.95139503479004
19.59623146057129
13.183784484863281
14.822566986083984
18.18054962158203
-7.9470319747924805
-19.996774673461914
-19.99999237060547
-19.99981117248535
0.00039696693420410156
-19.779294967651367
19.999984741210938
19.124820709228516
-19.702861785888672
-4.950621604919434
-16.6917724609375
19.896942138671875
19.82876968383789
-19.987163543701172
-7.7078046798706055
-19.982168197631836
19.71932601928711
19.999835968017578
-19.999927520751953
-19.60637092590332
1.49208664894104
7.617751121520996
0.3227001428604126
15.307828903198242
-19.980873107910156
-19.551742553710938
-19.971895217895508
19.551742553710938
0.0
19.98740005493164
-9.144720077514648
-19.91724395751953
18.880552291870117
-14.992570877075195
7.240467548370361
-19.981765747070312
19.999835968017578
-19.98426055908203
-19.961101531982422
19.999998092651367
19.960729598999023
20.0
-17.535783767700195
19.999431610107422
15.0571870803833
19.99931526184082
19.994117736816406
19.98596954345703
-19.933841705322266
19.999998092651367
19.999998092651367
12.599336624145508
19.99850082397461
19.998764038085938
17.909204483032227
19.5231990814209
18.470125198364258
19.887107849121094
19.991661071777344
-18.823083877563477
-19.902462005615234
-5.801839351654053
2.964660882949829
-20.0
-19.99957847595215
-19.99850082397461
-19.999998092651367
-18.802631378173828
19.98740005493164
-17.669597625732422
19.991168975830078
-19.961931228637695
18.629695892333984
-19.996774673461914
19.813236236572266
-19.44151496887207
-16.990888595581055
1.7170666456222534
-19.961931228637695
-19.999282836914062
4.807562351226807
-19.035741806030273
-12.219218254089355
-13.866876602172852
19.999902725219727
-19.91468048095703
-3.1005210876464844
19.9016056060791
-19.961101531982422
-0.2200419306755066
1.7170666456222534
-19.9920597076416
-19.39971160888672
6.203560829162598
-19.195812225341797
18.940757751464844
19.59623146057129
-19.95139503479004
19.991661071777344
-19.999258041381836
19.76584243774414
-19.981765747070312
-19.997303009033203
6.203560829162598
15.307828903198242
-18.155437469482422
-19.968069076538086
-19.98590660095215
19.999183654785156
-19.902462005615234
14.088421821594238
3.987848997116089
-18.45656967163086
10.55894660949707
-8.484278678894043
-17.535783767700195
16.358686447143555
19.999977111816406
-19.999990463256836
19.59623146057129
19.76584243774414
-19.95139503479004
-19.981765747070312
-4.950621604919434
18.18054962158203
-19.902462005615234
-19.91468048095703
-13.341913223266602
13.099931716918945
-19.99728012084961
-18.589824676513672
19.97245216369629
19.896942138671875
-19.980873107910156
19.96562957763672
19.947111129760742
19.98483657836914
19.97245216369629
19.774757385253906
19.999553680419922
-19.902462005615234
19.90261459350586
-19.81365966796875
19.960111618041992
19.999988555908203
19.97245216369629
19.90261459350586
19.99989891052246
-13.341913223266602
19.99437141418457
19.999706268310547
19.947111129760742
19.815326690673828
19.944961547851562
19.999706268310547
19.321550369262695
19.991586685180664
19.99989891052246
19.999486923217773
19.98904037475586
-19.980873107910156
-19.99016571044922
19.96297836303711
19.986366271972656
-19.82876968383789
19.999956130981445
19.999988555908203
19.996173858642578
19.565980911254883
19.994937896728516
19.960729598999023
19.99643898010254
19.99778175354004
19.99992561340332
19.960111618041992
-19.759042739868164
19.99992561340332
-19.822389602661133
19.994937896728516
-19.177797317504883
19.98483657836914
19.99778175354004
19.997644424438477
19.960111618041992
-0.9109389185905457
19.996173858642578
19.574100494384766
19.99997329711914
19.99503517150879
19.999486923217773
19.929317474365234
-13.341913223266602
19.986366271972656
19.945009231567383
19.990615844726562
19.991653442382812
19.565980911254883
19.99503517150879
19.99643898010254
19.956871032714844
-17.55010223388672
-19.99999237060547
19.990615844726562
-18.090438842773438
19.90261459350586
19.99860954284668
19.979557037353516
-19.980873107910156
-19.999940872192383
19.999805450439453
19.988750457763672
19.760393142700195
19.999143600463867
19.99860954284668
19.934873580932617
19.99864959716797
19.929317474365234
19.97956085205078
19.956871032714844
-8.67741870880127
-19.999940872192383
-19.01229476928711
19.927135467529297
-10.402742385864258
19.99778175354004
19.929317474365234
19.997472763061523
19.948389053344727
19.929317474365234
-19.42238998413086
6.483877182006836
19.975269317626953
-19.99864959716797
5.570199012756348
19.945009231567383
19.995407104492188
-19.99997329711914
-19.999996185302734
-12.21340560913086
19.821083068847656
19.887107849121094
-19.759042739868164
-17.621740341186523
-16.337926864624023
7.606565475463867
-19.990615844726562
-10.358688354492188
19.991653442382812
7.606565475463867
-10.402742385864258
-18.533100128173828
-15.670722961425781
19.998125076293945
-16.251705169677734
19.99778175354004
-14.194040298461914
19.574100494384766
-18.981708526611328
-19.983856201171875
-19.879419326782227
19.821083068847656
18.33414077758789
9.64194107055664
-1.175337553024292
-17.684833526611328
-18.964271545410156
7.286002159118652
-1.175337553024292
-19.999805450439453
19.574100494384766
-0.9109389185905457
-17.684833526611328
-6.30134391784668
-18.964271545410156
-10.402742385864258
-19.99997329711914
18.33414077758789
-15.670722961425781
-19.42238998413086
-10.358688354492188
-19.999608993530273
-19.999988555908203
-19.950435638427734
18.580366134643555
-14.657857894897461
-19.665987014770508
18.78280258178711
-19.99725914001465
-19.999805450439453
-19.665987014770508
7.461662292480469
-17.504154205322266
-19.947721481323242
-4.950621604919434
-19.988037109375
9.64194107055664
17.855649948120117
-19.99862289428711
-19.99864959716797
13.991326332092285
-12.21340560913086
-13.764184951782227
-8.029935836791992
16.45799446105957
-16.32651710510254
-8.67741870880127
-19.99992561340332
-19.988037109375
-18.087751388549805
-16.32651710510254
19.760393142700195
11.885650634765625
-19.990615844726562
-19.665987014770508
-14.237985610961914
-15.033796310424805
-0.72769695520401
18.523191452026367
-19.985790252685547
-19.615175247192383
-19.97772979736328
-8.029935836791992
-8.285747528076172
-8.67741870880127
-12.604316711425781
-17.504154205322266
-19.991531372070312
-18.83909797668457
-8.195324897766113
17.855649948120117
-18.83909797668457
-19.615175247192383
-19.888378143310547
-19.888378143310547
-19.97772979736328
-19.947721481323242
-19.99862289428711
-19.999486923217773
-16.19300651550293
-19.99655532836914
19.945009231567383
-5.131377220153809
-19.91724395751953
-19.997447967529297
-19.99643898010254
-5.131377220153809
-3.9455482959747314
5.909465789794922
19.12351417541504
-19.888378143310547
-17.637611389160156
-19.96791648864746
-19.979175567626953
19.760393142700195
-8.67741870880127
-19.035741806030273
17.498897552490234
-17.504154205322266
-19.947721481323242
-19.79016876220703
-3.9455482959747314
0.0
-19.244651794433594
18.580366134643555
-14.237985610961914
-7.009138107299805
-2.0992422103881836
-19.543054580688477
-19.994138717651367
-19.988569259643555
-19.998109817504883
-19.97772979736328
-19.99724769592285
-19.996774673461914
6.203642845153809
-7.009138107299805
-5.131377220153809
-19.44151496887207
-17.684833526611328
-19.988569259643555
19.12351417541504
-19.995271682739258
-19.988773345947266
-16.32651710510254
-14.194040298461914
-19.99372673034668
-19.79016876220703
19.221797943115234
16.40558433532715
9.245323181152344
-19.996774673461914
2.4903368949890137
6.203642845153809
-19.99432373046875
-19.99896240234375
-19.979175567626953
10.7731351852417
18.523191452026367
-19.98457145690918
-19.998109817504883
-19.990142822265625
9.033287048339844
9.033287048339844
13.183784484863281
-19.99655532836914
6.203642845153809
2.4903368949890137
2.4903368949890137
7.151445388793945
-19.90536880493164
-19.99372673034668
12.275362968444824
-0.3468731641769409
-19.998600006103516
2.4903368949890137
6.203642845153809
-0.3468731641769409
-0.3590293526649475
-8.282350540161133
-8.282350540161133
-19.481441497802734
-19.995351791381836
-19.771446228027344
3.987848997116089
3.987848997116089
-16.52372169494629
-10.532492637634277
-8.875829696655273
-10.532492637634277
8.405073165893555
15.599706649780273
-12.663124084472656
-8.875829696655273
11.71308422088623
16.640413284301758
14.28689193725586
16.640413284301758
-12.663124084472656
-18.91942596435547
-14.28689193725586
-15.599706649780273
-17.452592849731445
18.078723907470703
18.078723907470703
17.452592849731445
15.013876914978027
-3.9455482959747314
11.71308422088623
-15.146615982055664
-16.640413284301758
-15.599706649780273
18.91942596435547
-10.532492637634277
-10.532492637634277
-19.98590660095215
-19.221797943115234
-19.8870849609375
-19.980451583862305
-4.507193565368652
7.617751121520996
-19.822389602661133
19.760393142700195
-19.8870849609375
-12.219218254089355
-19.640893936157227
-19.835237503051758
-19.925992965698242
-19.888378143310547
-19.640893936157227
-19.244651794433594
-19.924604415893555
-19.97772979736328
-19.96803855895996
-19.925992965698242
-19.881872177124023
19.192790985107422
-19.543054580688477
-19.99281120300293
-19.96803855895996
17.909204483032227
-19.941669464111328
-19.925992965698242
-19.924604415893555
-9.46127986907959
18.523191452026367
18.78280258178711
-19.883514404296875
7.606565475463867
-19.331260681152344
17.498897552490234
-18.60439682006836
19.3980712890625
-15.033796310424805
-13.4108247756958
-19.78383445739746
-19.999282836914062
17.498897552490234
-12.604316711425781
16.40558433532715
-8.195324897766113
-19.78383445739746
-16.990888595581055
19.3980712890625
-19.192790985107422
-18.91942596435547
13.991326332092285
-11.518890380859375
12.275362968444824
-19.331260681152344
17.855649948120117
-19.331260681152344
18.78280258178711
-19.983856201171875
-19.950435638427734
19.927135467529297
-12.278230667114258
12.275362968444824
18.828445434570312
-19.99944305419922
-19.995866775512695
-14.237985610961914
-19.3980712890625
-14.966632843017578
19.43152618408203
-17.684833526611328
-19.999744415283203
18.523191452026367
19.986366271972656
-19.99862289428711
16.88268280029297
18.038427352905273
17.855649948120117
-12.278230667114258
-19.9998836517334
-18.964271545410156
18.78280258178711
12.144695281982422
19.918672561645508
-18.889892578125
18.2481746673584
-3.9748449325561523
-19.99994659423828
-19.99063491821289
-15.033796310424805
19.643264770507812
16.778718948364258
19.856155395507812
17.556015014648438
-15.033796310424805
-19.999977111816406
19.581178665161133
19.774757385253906
18.038427352905273
7.606565475463867
-19.543054580688477
-19.999309539794922
19.835237503051758
19.619064331054688
-19.999988555908203
19.95355987548828
-8.195324897766113
-1.175337553024292
-19.99063491821289
18.828445434570312
15.509479522705078
-19.985790252685547
-19.9998836517334
19.821083068847656
-19.985790252685547
19.581178665161133
19.183046340942383
18.470125198364258
19.86688232421875
11.021204948425293
19.991586685180664
13.991326332092285
15.413398742675781
19.218833923339844
-19.999828338623047
16.778718948364258
18.828445434570312
-19.42238998413086
19.815326690673828
13.991326332092285
19.619064331054688
15.509479522705078
19.96554183959961
-19.37311363220215
17.556015014648438
18.828445434570312
-19.999977111816406
19.986366271972656
19.643264770507812
-19.999977111816406
19.859058380126953
19.927135467529297
19.945009231567383
19.99503517150879
19.43152618408203
19.43152618408203
19.9193172454834
19.815326690673828
19.856155395507812
17.556015014648438
19.997365951538086
19.643264770507812
19.944961547851562
18.880552291870117
19.944961547851562
19.99671745300293
18.297035217285156
19.815326690673828
19.821083068847656
19.581178665161133
19.067827224731445
17.556015014648438
19.43152618408203
19.85346794128418
19.999448776245117
19.980127334594727
19.991586685180664
19.067827224731445
15.509479522705078
19.99974822998047
10.470941543579102
19.9998836517334
19.99994659423828
19.999977111816406
19.99503517150879
19.985700607299805
19.948389053344727
19.938154220581055
19.999988555908203
19.969446182250977
19.859058380126953
19.999996185302734
-19.998743057250977
-19.99016571044922
19.966394424438477
19.999448776245117
19.726247787475586
19.999677658081055
-19.99193000793457
19.9998836517334
19.99994659423828
19.89397430419922
19.999977111816406
19.99994659423828
19.999984741210938
-19.995784759521484
-19.751157760620117
-7.7078046798706055
19.991168975830078
-19.43011474609375
-4.923632621765137
-19.90536880493164
19.226539611816406
-19.79016876220703
-3.1005210876464844
-2.0992422103881836
16.811283111572266
18.91942596435547
-19.997323989868164
-0.72769695520401
-3.9455482959747314
-19.90831184387207
19.999706268310547
-19.89554214477539
19.99708366394043
19.992816925048828
19.994056701660156
-19.99458122253418
-19.96803855895996
-19.985790252685547
-19.95792007446289
-18.45656967163086
4.807562351226807
-19.998777389526367
19.999553680419922
19.633275985717773
19.29386329650879
-19.99728012084961
18.556888580322266
-19.993282318115234
-7.5141191482543945
19.981420516967773
-5.131377220153809
19.985700607299805
17.498897552490234
18.23894500732422
9.64194107055664
3.987848997116089
19.998905181884766
19.99437141418457
19.99999237060547
-19.999996185302734
-19.996204376220703
19.99671745300293
8.405073165893555
-19.01229476928711
-19.993614196777344
-19.950435638427734
-19.983856201171875
19.835237503051758
19.964773178100586
10.798839569091797
19.99281120300293
-3.9748449325561523
-19.99063491821289
-19.985458374023438
-19.98426055908203
10.702985763549805
-19.99944305419922
-8.484278678894043
19.70832061767578
14.822566986083984
-19.993900299072266
19.99563980102539
19.887107849121094
18.470125198364258
7.44467830657959
7.617751121520996
19.999479293823242
18.2481746673584
12.144695281982422
-19.999927520751953
-19.999996185302734
-19.999998092651367
-7.9470319747924805
-19.91468048095703
-19.998409271240234
-19.99942970275879
19.966394424438477
0.3227001428604126
-18.589824676513672
-19.221797943115234
1.206763744354248
5.801839351654053
-2.0992422103881836
-19.995773315429688
19.71932601928711
-19.822389602661133
-19.999940872192383
19.99993896484375
-9.837292671203613
-19.78383445739746
-19.998743057250977
19.98426055908203
19.98167610168457
19.9193172454834
19.12351417541504
-19.43967628479004
-19.96554183959961
15.989616394042969
9.245323181152344
16.358686447143555
12.663124084472656
-19.965389251708984
19.99850082397461
-17.637611389160156
-18.078723907470703
-13.866876602172852
19.999998092651367
-17.621740341186523
-8.195324897766113
19.927135467529297
19.999235153198242
19.76080322265625
-17.535783767700195
-19.331260681152344
-19.999998092651367
-19.995866775512695
10.7731351852417
19.999143600463867
-19.99671745300293
-12.219218254089355
-19.999998092651367
-19.99942970275879
-8.405073165893555
5.801839351654053
19.999996185302734
19.997365951538086
19.998180389404297
-0.9109389185905457
14.810514450073242
-4.740884780883789
-14.861404418945312
19.98167610168457
19.994056701660156
-19.999258041381836
-19.990142822265625
-19.998743057250977
-19.244651794433594
-19.60637092590332
-19.782258987426758
-19.986696243286133
-19.99728012084961
19.99456024169922
19.924604415893555
-14.286218643188477
19.813236236572266
19.996065139770508
6.208916187286377
-19.81365966796875
19.999902725219727
-19.89554214477539
-18.76761245727539
-19.977020263671875
-19.975269317626953
19.940521240234375
19.998905181884766
-19.99281120300293
10.470941543579102
-19.988773345947266
0.00039696693420410156
-2.964660882949829
-19.99931526184082
-20.0
-19.035741806030273
-14.237985610961914
-7.9470319747924805
-19.99941635131836
-19.37068748474121
-17.55010223388672
-19.99886703491211
9.453226089477539
19.226539611816406
-19.952619552612305
-13.866876602172852
18.038427352905273
-19.98590660095215
19.974578857421875
19.98904037475586
-18.889892578125
-17.504154205322266
19.221797943115234
19.855396270751953
7.286002159118652
-19.998519897460938
-8.484278678894043
18.940757751464844
19.99730110168457
-9.837292671203613
-19.99896240234375
19.994237899780273
-19.999990463256836
-16.19300651550293
-3.917353630065918
19.31831169128418
7.461662292480469
19.999996185302734
15.307828903198242
12.275362968444824
19.350645065307617
16.52372169494629
-19.759042739868164
-17.452592849731445
19.995407104492188
19.981420516967773
-19.82876968383789
-16.52372169494629
19.984039306640625
-18.556888580322266
19.908794403076172
19.966394424438477
19.96297836303711
7.151445388793945
-19.99941635131836
19.99994659423828
-19.822389602661133
19.999143600463867
-19.999309539794922
-19.724824905395508
-19.925992965698242
-19.996204376220703
1.206763744354248
19.998764038085938
-19.999996185302734
-19.991024017333984
-19.99989128112793
19.99999237060547
19.90347671508789
-19.999608993530273
-19.908029556274414
-19.99972152709961
11.71308422088623
-18.33414077758789
-19.99930191040039
19.44516372680664
19.99888801574707
19.999984741210938
19.76080322265625
-19.999977111816406
-19.999969482421875
19.974578857421875
-19.999984741210938
-19.702861785888672
19.918672561645508
-18.889892578125
19.94241714477539
19.96554183959961
19.999956130981445
15.944828033447266
-19.99972152709961
19.99993896484375
-19.974393844604492
-19.99971580505371
14.28689193725586
-3.1005210876464844
1.49208664894104
15.989616394042969
-11.680607795715332
19.991168975830078
-19.883007049560547
19.999235153198242
19.95355987548828
7.151445388793945
-12.604316711425781
19.71932601928711
7.286002159118652
-19.998409271240234
-18.60439682006836
-19.999998092651367
19.856155395507812
-8.405073165893555
-19.99972915649414
19.984039306640625
-19.99862289428711
19.997644424438477
19.999998092651367
15.0571870803833
-10.209737777709961
-19.9871883392334
15.013876914978027
19.998796463012695
19.9016056060791
-19.977020263671875
6.483877182006836
-19.9655818939209
-8.282350540161133
-18.533100128173828
-19.999828338623047
19.998910903930664
-19.43011474609375
-19.991024017333984
19.980127334594727
19.998764038085938
6.203560829162598
-15.146615982055664
2.334846019744873
-19.724824905395508