# vtk DataFile Version 2.0
FOR TEST
ASCII
DATASET POLYDATA
POINTS 303 float
50.000000000000000 50.000000000000000 0.000000000000000
-50.000000000000000 50.000000000000000 0.000000000000000
-50.000000000000000 -50.000000000000000 0.000000000000000
50.000000000000000 -50.000000000000000 0.000000000000000
-40.339031219482422 50.000000000000000 0.000000000000000
-31.144729614257812 50.000000000000000 0.000000000000000
-22.394569396972656 50.000000000000000 0.000000000000000
-14.067070007324219 50.000000000000000 0.000000000000000
-6.141838073730469 50.000000000000000 0.000000000000000
1.400569915771484 50.000000000000000 0.000000000000000
8.578641891479492 50.000000000000000 0.000000000000000
15.409978866577148 50.000000000000000 0.000000000000000
21.911329269409180 50.000000000000000 0.000000000000000
28.098630905151367 50.000000000000000 0.000000000000000
33.987060546875000 50.000000000000000 0.000000000000000
39.591049194335938 50.000000000000000 0.000000000000000
44.924339294433594 50.000000000000000 0.000000000000000
50.000000000000000 45.043388366699219 0.000000000000000
50.000000000000000 39.349739074707031 0.000000000000000
50.000000000000000 32.809448242187500 0.000000000000000
50.000000000000000 25.296630859375000 0.000000000000000
50.000000000000000 16.666671752929688 0.000000000000000
50.000000000000000 6.753440856933594 0.000000000000000
50.000000000000000 -4.633862972259521 0.000000000000000
50.000000000000000 -17.714439392089844 0.000000000000000
50.000000000000000 -32.740081787109375 0.000000000000000
32.026348114013672 -50.000000000000000 0.000000000000000
17.121692657470703 -50.000000000000000 0.000000000000000
4.761991500854492 -50.000000000000000 0.000000000000000
-5.487281799316406 -50.000000000000000 0.000000000000000
-13.986499786376953 -50.000000000000000 0.000000000000000
-21.034479141235352 -50.000000000000000 0.000000000000000
-26.879020690917969 -50.000000000000000 0.000000000000000
-31.725599288940430 -50.000000000000000 0.000000000000000
-35.744628906250000 -50.000000000000000 0.000000000000000
-39.077411651611328 -50.000000000000000 0.000000000000000
-41.841129302978516 -50.000000000000000 0.000000000000000
-44.132930755615234 -50.000000000000000 0.000000000000000
-46.033420562744141 -50.000000000000000 0.000000000000000
-47.609390258789062 -50.000000000000000 0.000000000000000
-48.916271209716797 -50.000000000000000 0.000000000000000
-50.000000000000000 -48.971099853515625 0.000000000000000
-50.000000000000000 -47.846931457519531 0.000000000000000
-50.000000000000000 -46.618648529052734 0.000000000000000
-50.000000000000000 -45.276641845703125 0.000000000000000
-50.000000000000000 -43.810348510742188 0.000000000000000
-50.000000000000000 -42.208290100097656 0.000000000000000
-50.000000000000000 -40.457870483398438 0.000000000000000
-50.000000000000000 -38.545360565185547 0.000000000000000
-50.000000000000000 -36.455749511718750 0.000000000000000
-50.000000000000000 -34.172641754150391 0.000000000000000
-50.000000000000000 -31.678119659423828 0.000000000000000
-50.000000000000000 -28.952600479125977 0.000000000000000
-50.000000000000000 -25.974689483642578 0.000000000000000
-50.000000000000000 -22.721029281616211 0.000000000000000
-50.000000000000000 -19.166080474853516 0.000000000000000
-50.000000000000000 -15.281929016113281 0.000000000000000
-50.000000000000000 -11.038109779357910 0.000000000000000
-50.000000000000000 -6.401305198669434 0.000000000000000
-50.000000000000000 -1.335127830505371 0.000000000000000
-50.000000000000000 4.200180053710938 0.000000000000000
-50.000000000000000 10.248060226440430 0.000000000000000
-50.000000000000000 16.855979919433594 0.000000000000000
-50.000000000000000 24.075799942016602 0.000000000000000
-50.000000000000000 31.964179992675781 0.000000000000000
-50.000000000000000 40.583038330078125 0.000000000000000
-44.520736694335938 1.274851799011230 0.000000000000000
-46.930664062500000 -24.429786682128906 0.000000000000000
-2.760099411010742 41.590854644775391 0.000000000000000
-47.323463439941406 -12.934829711914062 0.000000000000000
-47.592052459716797 -34.979202270507812 0.000000000000000
7.664125442504883 -36.432094573974609 0.000000000000000
-23.874870300292969 -44.759372711181641 0.000000000000000
-47.989135742187500 -41.147171020507812 0.000000000000000
18.450832366943359 44.298835754394531 0.000000000000000
-43.937351226806641 20.393056869506836 0.000000000000000
41.813156127929688 1.630372047424316 0.000000000000000
-37.655570983886719 -47.253017425537109 0.000000000000000
44.230331420898438 22.349884033203125 0.000000000000000
-44.909149169921875 -48.389560699462891 0.000000000000000
-17.254121780395508 42.699470520019531 0.000000000000000
-47.438777923583984 -30.316402435302734 0.000000000000000
31.766735076904297 44.614673614501953 0.000000000000000
-48.413787841796875 -44.617271423339844 0.000000000000000
24.373153686523438 -38.195205688476562 0.000000000000000
45.414146423339844 36.511241912841797 0.000000000000000
-48.741027832031250 -47.015857696533203 0.000000000000000
-34.433139801025391 41.939239501953125 0.000000000000000
42.842597961425781 45.872737884521484 0.000000000000000
39.682083129882812 -23.336997985839844 0.000000000000000
-48.068634033203125 -48.913978576660156 0.000000000000000
41.208114624023438 -10.215515136718750 0.000000000000000
33.114337921142578 -3.449882507324219 0.000000000000000
34.194400787353516 7.565610885620117 0.000000000000000
25.759216308593750 2.728336334228516 0.000000000000000
26.173557281494141 12.069147109985352 0.000000000000000
17.742410659790039 7.647027492523193 0.000000000000000
15.984974861145020 -2.432834625244141 0.000000000000000
8.596385955810547 2.498216152191162 0.000000000000000
7.629439353942871 -5.986905097961426 0.000000000000000
2.153612136840820 -0.348423480987549 0.000000000000000
1.880678176879883 -6.942331790924072 0.000000000000000
-3.330961227416992 -1.799923896789551 0.000000000000000
-3.781650543212891 -7.999955177307129 0.000000000000000
-3.169139862060547 4.522538185119629 0.000000000000000
-10.814641952514648 -4.488908767700195 0.000000000000000
-13.133256912231445 -12.049737930297852 0.000000000000000
-19.169574737548828 -7.930873870849609 0.000000000000000
-20.707962036132812 -14.889102935791016 0.000000000000000
-15.216483116149902 -19.099447250366211 0.000000000000000
-22.253383636474609 -21.450237274169922 0.000000000000000
-17.818845748901367 -0.817106246948242 0.000000000000000
9.977922439575195 13.080396652221680 0.000000000000000
-17.098152160644531 -25.640537261962891 0.000000000000000
-23.714664459228516 -27.528869628906250 0.000000000000000
-28.274436950683594 -23.655807495117188 0.000000000000000
-29.349796295166016 -28.990491867065430 0.000000000000000
-9.368121147155762 -23.008909225463867 0.000000000000000
6.445261955261230 -14.168369293212891 0.000000000000000
-25.773775100708008 -10.716291427612305 0.000000000000000
-11.788108825683594 -29.901388168334961 0.000000000000000
-33.343162536621094 -25.645313262939453 0.000000000000000
-34.291423797607422 -30.285301208496094 0.000000000000000
-30.936723709106445 -33.812034606933594 0.000000000000000
-35.670215606689453 -34.826690673828125 0.000000000000000
-32.659580230712891 -38.027595520019531 0.000000000000000
-36.934989929199219 -38.855545043945312 0.000000000000000
-32.837574005126953 -20.742317199707031 0.000000000000000
-39.718616485595703 -36.060226440429688 0.000000000000000
-40.589279174804688 -39.664241790771484 0.000000000000000
-28.000064849853516 -37.619758605957031 0.000000000000000
-3.032529115676880 -26.635898590087891 0.000000000000000
-37.853111267089844 -27.267797470092773 0.000000000000000
31.449470520019531 -14.894472122192383 0.000000000000000
-34.329303741455078 -42.018497467041016 0.000000000000000
-42.916645050048828 -37.344314575195312 0.000000000000000
-42.817565917968750 -33.835796356201172 0.000000000000000
-43.850303649902344 -40.512599945068359 0.000000000000000
-41.535518646240234 -42.734607696533203 0.000000000000000
-44.177947998046875 -43.311515808105469 0.000000000000000
-42.471267700195312 -45.477355957031250 0.000000000000000
-45.488948822021484 -38.306175231933594 0.000000000000000
-2.315451622009277 -20.735141754150391 0.000000000000000
2.700048208236694 -24.468429565429688 0.000000000000000
-44.977005004882812 -45.381237030029297 0.000000000000000
33.482788085937500 16.543754577636719 0.000000000000000
26.620868682861328 20.772392272949219 0.000000000000000
33.170585632324219 24.367731094360352 0.000000000000000
27.356601715087891 28.994613647460938 0.000000000000000
20.476951599121094 25.654434204101562 0.000000000000000
33.915008544921875 31.868652343750000 0.000000000000000
21.190654754638672 33.325920104980469 0.000000000000000
13.822025299072266 29.802669525146484 0.000000000000000
-5.609657287597656 -33.698520660400391 0.000000000000000
-14.654330253601074 -36.921581268310547 0.000000000000000
-39.589729309082031 -45.002487182617188 0.000000000000000
13.687950134277344 -36.613422393798828 0.000000000000000
18.027114868164062 -28.218902587890625 0.000000000000000
-40.571674346923828 -47.606441497802734 0.000000000000000
-29.291475296020508 -45.278079986572266 0.000000000000000
12.754999160766602 22.213184356689453 0.000000000000000
6.972250938415527 26.915151596069336 0.000000000000000
8.024049758911133 33.796710968017578 0.000000000000000
1.864478826522827 31.521587371826172 0.000000000000000
1.788945674896240 25.645294189453125 0.000000000000000
-3.513065338134766 30.305179595947266 0.000000000000000
-2.872277259826660 24.423006057739258 0.000000000000000
-10.192203521728516 27.727622985839844 0.000000000000000
-12.047320365905762 18.675977706909180 0.000000000000000
-18.651966094970703 24.148452758789062 0.000000000000000
-20.406568527221680 17.059333801269531 0.000000000000000
-25.977033615112305 21.888103485107422 0.000000000000000
-27.165653228759766 14.981307983398438 0.000000000000000
-25.020772933959961 29.917221069335938 0.000000000000000
-31.653844833374023 26.402379989624023 0.000000000000000
-22.106519699096680 10.462200164794922 0.000000000000000
-28.476915359497070 8.510993957519531 0.000000000000000
-33.514232635498047 12.696222305297852 0.000000000000000
-0.163092613220215 18.144538879394531 0.000000000000000
-35.077201843261719 6.404468536376953 0.000000000000000
-30.550498962402344 1.888795375823975 0.000000000000000
-37.644840240478516 0.361123085021973 0.000000000000000
-32.814735412597656 -3.970201492309570 0.000000000000000
-38.538082122802734 -5.599586486816406 0.000000000000000
-34.707248687744141 -9.029212951660156 0.000000000000000
-39.688182830810547 -10.495317459106445 0.000000000000000
-36.028343200683594 -13.651637077331543 0.000000000000000
-40.572044372558594 -15.102575302124023 0.000000000000000
-39.656372070312500 10.119729995727539 0.000000000000000
-11.439977645874023 34.984214782714844 0.000000000000000
-43.993598937988281 -7.300018310546875 0.000000000000000
-39.268962860107422 -31.683818817138672 0.000000000000000
-41.677814483642578 -28.369342803955078 0.000000000000000
-41.106803894042969 -24.680046081542969 0.000000000000000
-46.390220642089844 -43.948917388916016 0.000000000000000
-47.238742828369141 -45.930210113525391 0.000000000000000
-41.178928375244141 35.801155090332031 0.000000000000000
-25.534595489501953 43.041965484619141 0.000000000000000
-20.712635040283203 36.333137512207031 0.000000000000000
-9.713634490966797 41.618942260742188 0.000000000000000
-46.026039123535156 -41.947177886962891 0.000000000000000
-9.443216323852539 -41.907485961914062 0.000000000000000
28.092887878417969 37.407680511474609 0.000000000000000
-27.820802688598633 -17.297647476196289 0.000000000000000
-42.469169616699219 28.205270767211914 0.000000000000000
2.749148368835449 7.299273967742920 0.000000000000000
4.310786247253418 42.754699707031250 0.000000000000000
-32.484649658203125 19.281429290771484 0.000000000000000
-33.956901550292969 -46.142440795898438 0.000000000000000
-42.731197357177734 -47.814144134521484 0.000000000000000
-46.669647216796875 -48.677555084228516 0.000000000000000
42.090972900390625 13.513252258300781 0.000000000000000
-45.671829223632812 -16.510345458984375 0.000000000000000
-41.579612731933594 -20.129419326782227 0.000000000000000
-9.858510017395020 2.307618141174316 0.000000000000000
-9.219153404235840 10.041759490966797 0.000000000000000
44.825878143310547 29.734178543090820 0.000000000000000
-25.701168060302734 -3.703068733215332 0.000000000000000
-23.650979995727539 3.665364742279053 0.000000000000000
-19.327964782714844 -32.068325042724609 0.000000000000000
-22.288778305053711 -38.558364868164062 0.000000000000000
-37.301109313964844 -22.804597854614258 0.000000000000000
-47.617275238037109 -37.183143615722656 0.000000000000000
14.951410293579102 37.962799072265625 0.000000000000000
-17.636449813842773 -43.774566650390625 0.000000000000000
-32.770900726318359 33.480506896972656 0.000000000000000
37.326541900634766 -36.991760253906250 0.000000000000000
-36.819881439208984 -44.573074340820312 0.000000000000000
37.527011871337891 45.017780303955078 0.000000000000000
35.608314514160156 39.068386077880859 0.000000000000000
24.998277664184570 44.309261322021484 0.000000000000000
-48.864761352539062 -45.882869720458984 0.000000000000000
-48.058544158935547 -42.895439147949219 0.000000000000000
5.838972568511963 20.234203338623047 0.000000000000000
-47.746154785156250 -39.218509674072266 0.000000000000000
-47.612697601318359 -32.781574249267578 0.000000000000000
-45.112682342529297 -31.790426254272461 0.000000000000000
-47.208274841308594 -27.504722595214844 0.000000000000000
-46.181991577148438 -20.907238006591797 0.000000000000000
-47.407844543457031 -47.519763946533203 0.000000000000000
18.975833892822266 16.925270080566406 0.000000000000000
14.760717391967773 -11.311100006103516 0.000000000000000
12.109315872192383 -20.633579254150391 0.000000000000000
-45.200950622558594 -35.807907104492188 0.000000000000000
8.784996032714844 -28.048311233520508 0.000000000000000
-30.060560226440430 -41.000270843505859 0.000000000000000
-45.870605468750000 -47.109241485595703 0.000000000000000
24.166450500488281 -7.583431243896484 0.000000000000000
11.344118118286133 43.670806884765625 0.000000000000000
-25.622852325439453 -33.108554840087891 0.000000000000000
-4.150888442993164 35.368362426757812 0.000000000000000
-38.347019195556641 -42.195846557617188 0.000000000000000
41.295368194580078 40.520450592041016 0.000000000000000
28.702411651611328 -26.692138671875000 0.000000000000000
-42.078712463378906 -2.859269618988037 0.000000000000000
-7.692491531372070 -16.612668991088867 0.000000000000000
46.265247344970703 42.510341644287109 0.000000000000000
-48.873989105224609 -48.232559204101562 0.000000000000000
3.421021461486816 -30.777093887329102 0.000000000000000
-5.682038307189941 15.906875610351562 0.000000000000000
-16.599311828613281 6.241420745849609 0.000000000000000
40.165786743164062 34.268760681152344 0.000000000000000
-44.901752471923828 7.357379913330078 0.000000000000000
21.658624649047852 39.551914215087891 0.000000000000000
-36.843940734863281 -18.120710372924805 0.000000000000000
22.048631668090820 -17.766189575195312 0.000000000000000
39.149887084960938 27.239160537719727 0.000000000000000
-0.234909057617188 -14.217499732971191 0.000000000000000
-38.725933074951172 16.478607177734375 0.000000000000000
2.359217882156372 37.096832275390625 0.000000000000000
-43.121829986572266 43.716053009033203 0.000000000000000
-26.491783142089844 -41.273330688476562 0.000000000000000
-44.259017944335938 -26.233198165893555 0.000000000000000
-43.964481353759766 -46.672721862792969 0.000000000000000
-42.730297088623047 -30.990633010864258 0.000000000000000
-16.111639022827148 12.487688064575195 0.000000000000000
8.166444778442383 -33.026100158691406 0.000000000000000
-37.692008972167969 23.408035278320312 0.000000000000000
-40.451210021972656 5.005084037780762 0.000000000000000
-31.217258453369141 -12.526607513427734 0.000000000000000
-46.185890197753906 -40.203823089599609 0.000000000000000
-44.693622589111328 -29.169670104980469 0.000000000000000
2.328441143035889 -19.443824768066406 0.000000000000000
-43.893081665039062 -23.183341979980469 0.000000000000000
-44.596363067626953 13.507493972778320 0.000000000000000
-17.284015655517578 30.557340621948242 0.000000000000000
-29.749370574951172 -7.754549026489258 0.000000000000000
46.797870635986328 46.673294067382812 0.000000000000000
-27.705730438232422 36.934883117675781 0.000000000000000
-46.198757171630859 -3.411650419235229 0.000000000000000
-36.990047454833984 29.598400115966797 0.000000000000000
-49.015834808349609 -49.111812591552734 0.000000000000000
-45.602531433105469 -33.797393798828125 0.000000000000000
3.089374065399170 13.883869171142578 0.000000000000000
-47.081348419189453 -9.953221321105957 0.000000000000000
-31.931512832641602 -43.637020111083984 0.000000000000000
8.185607910156250 39.082405090332031 0.000000000000000
-2.271223306655884 11.075187683105469 0.000000000000000
6.274701118469238 -21.563205718994141 0.000000000000000
-44.050086975097656 -12.044951438903809 0.000000000000000
38.559967041015625 20.920755386352539 0.000000000000000
-32.979595184326172 -16.490732192993164 0.000000000000000
3.599811553955078 -34.410045623779297 0.000000000000000

POLYGONS 538 2152
3 82 202 230
3 195 86 231
3 72 220 224
3 83 194 195
3 226 84 253
3 217 180 218
3 76 23 91
3 86 195 239
3 76 93 211
3 128 136 191
3 200 194 232
3 35 36 158
3 28 71 156
3 140 209 273
3 83 195 231
3 93 145 211
3 220 130 249
3 202 82 229
3 124 128 191
3 220 154 224
3 91 89 133
3 89 226 253
3 76 91 92
3 212 187 213
3 155 77 158
3 182 180 217
3 194 83 232
3 73 200 232
3 77 35 158
3 193 213 221
3 27 28 156
3 156 71 276
3 110 115 203
3 29 30 201
3 115 127 203
3 133 89 253
3 34 77 208
3 219 220 249
3 32 33 159
3 221 213 264
3 23 24 91
3 187 212 299
3 112 160 240
3 140 158 209
3 220 72 271
3 80 189 198
3 111 217 218
3 33 34 208
3 84 27 156
3 24 89 91
3 157 242 265
3 196 87 225
3 168 215 275
3 22 76 211
3 189 80 199
3 135 129 137
3 215 168 259
3 159 33 208
3 135 137 141
3 212 69 299
3 122 124 191
3 253 157 265
3 128 126 129
3 66 181 254
3 114 113 219
3 213 187 264
3 128 129 135
3 139 140 144
3 8 68 199
3 29 201 302
3 75 63 204
3 77 155 227
3 6 80 197
3 84 157 253
3 7 8 199
3 194 144 195
3 26 27 84
3 137 138 139
3 126 134 251
3 130 220 271
3 96 112 240
3 124 126 128
3 112 98 205
3 150 202 229
3 197 80 198
3 137 139 200
3 121 116 122
3 158 36 209
3 108 110 203
3 154 201 224
3 76 92 93
3 141 222 243
3 208 77 227
3 24 25 89
3 84 156 157
3 134 208 227
3 80 7 199
3 139 144 194
3 223 74 263
3 115 114 116
3 121 122 132
3 115 116 121
3 245 130 271
3 132 193 221
3 63 64 204
3 143 244 258
3 132 122 191
3 112 205 293
3 196 225 290
3 242 157 244
3 110 114 115
3 222 70 243
3 124 125 126
3 22 23 76
3 107 106 108
3 134 227 251
3 160 112 233
3 216 78 266
3 3 26 226
3 294 190 299
3 132 191 192
3 268 75 277
3 137 200 280
3 181 66 278
3 107 108 119
3 105 111 214
3 147 148 150
3 230 202 263
3 105 106 107
3 87 5 197
3 121 132 221
3 105 103 106
3 102 105 214
3 5 6 197
3 148 151 202
3 72 32 159
3 185 186 187
3 85 252 256
3 150 148 202
3 122 123 124
3 183 184 185
3 119 108 203
3 137 129 138
3 212 213 238
3 87 197 288
3 86 239 257
3 102 103 105
3 20 78 216
3 145 146 147
3 181 182 183
3 141 137 280
3 139 138 140
3 207 268 277
3 25 3 226
3 147 146 148
3 183 185 190
3 239 90 257
3 179 180 181
3 191 136 274
3 145 95 146
3 113 120 219
3 108 109 110
3 100 101 102
3 201 30 224
3 190 185 299
3 93 94 95
3 102 101 103
3 177 176 179
3 64 196 204
3 110 113 114
3 120 154 219
3 225 87 288
3 189 199 250
3 93 95 145
3 4 5 87
3 165 189 250
3 211 145 300
3 114 219 249
3 151 223 263
3 28 29 71
3 98 99 100
3 6 7 80
3 148 149 151
3 96 98 112
3 171 170 172
3 258 244 276
3 172 177 207
3 62 63 75
3 172 175 176
3 93 92 94
3 58 190 294
3 64 65 196
3 179 176 180
3 126 125 134
3 172 176 177
3 213 193 283
3 120 153 154
3 9 10 206
3 185 184 186
3 183 182 184
3 100 99 101
3 262 61 284
3 100 102 104
3 122 116 123
3 8 9 68
3 177 179 188
3 181 180 182
3 96 97 98
3 104 102 214
3 152 162 223
3 222 141 234
3 31 32 72
3 151 152 223
3 195 144 246
3 171 172 207
3 92 91 133
3 20 21 78
3 34 35 77
3 59 60 66
3 37 38 79
3 68 9 206
3 152 161 162
3 266 78 300
3 108 106 109
3 98 100 205
3 128 135 136
3 95 94 96
3 169 170 171
3 98 97 99
3 148 146 149
3 181 183 254
3 39 40 90
3 115 121 127
3 169 168 170
3 124 123 125
3 188 179 278
3 172 170 175
3 95 96 240
3 18 19 85
3 151 149 152
3 36 37 209
3 198 189 285
3 144 140 273
3 136 135 243
3 104 214 215
3 174 171 207
3 38 39 210
3 107 119 217
3 160 149 240
3 188 262 284
3 149 146 240
3 206 10 248
3 105 107 111
3 255 103 267
3 167 168 169
3 132 192 193
3 74 223 248
3 162 161 163
3 111 107 217
3 127 121 221
3 190 58 289
3 157 156 244
3 79 38 210
3 110 109 113
3 71 29 302
3 37 79 209
3 30 31 224
3 215 214 260
3 62 75 284
3 21 22 211
3 203 127 301
3 219 154 220
3 199 68 250
3 167 166 168
3 150 229 261
3 56 57 69
3 39 90 210
3 163 164 165
3 165 164 166
3 154 153 201
3 152 160 161
3 96 94 97
3 165 167 189
3 139 194 200
3 173 171 174
3 55 56 212
3 262 188 278
3 165 166 167
3 100 104 205
3 140 155 158
3 163 161 164
3 176 175 218
3 173 198 285
3 133 253 265
3 19 20 216
3 123 116 249
3 169 171 173
3 87 196 270
3 129 126 251
3 59 66 289
3 146 95 240
3 89 25 226
3 207 177 268
3 214 111 260
3 166 164 178
3 18 85 256
3 101 99 118
3 65 1 270
3 11 12 74
3 138 129 251
3 152 149 160
3 208 134 295
3 252 88 256
3 15 16 88
3 215 260 275
3 239 195 246
3 161 160 233
3 13 14 82
3 60 61 262
3 56 69 212
3 48 49 222
3 12 13 230
3 164 161 233
3 242 244 298
3 135 141 243
3 14 15 228
3 173 174 225
3 180 176 218
3 26 84 226
3 147 266 300
3 168 166 259
3 111 218 260
3 106 103 255
3 54 55 238
3 42 43 86
3 44 45 83
3 1 4 270
3 46 47 73
3 49 50 70
3 51 52 81
3 53 54 67
3 75 268 284
3 200 73 280
3 85 216 261
3 163 165 250
3 75 204 277
3 155 138 251
3 136 243 292
3 10 11 248
3 142 255 267
3 55 212 238
3 94 92 247
3 282 118 298
3 97 94 247
3 178 164 233
3 116 114 249
3 130 123 249
3 274 236 281
3 47 48 234
3 202 151 263
3 99 97 241
3 43 44 231
3 45 46 232
3 210 90 239
3 50 51 235
3 52 53 237
3 69 294 299
3 0 17 287
3 16 0 287
3 92 133 247
3 170 168 275
3 57 58 294
3 229 252 261
3 192 191 274
3 118 241 242
3 234 141 280
3 17 18 256
3 118 99 241
3 11 74 248
3 113 117 120
3 74 12 230
3 241 97 247
3 198 173 288
3 236 136 292
3 78 21 211
3 183 190 254
3 15 88 228
3 279 184 286
3 13 82 230
3 140 138 155
3 82 14 228
3 101 118 267
3 104 215 297
3 118 242 298
3 66 254 289
3 189 167 285
3 227 155 251
3 41 42 257
3 120 131 153
3 252 85 261
3 48 222 234
3 82 228 229
3 40 2 291
3 134 125 245
3 2 41 291
3 125 123 130
3 185 187 299
3 169 173 285
3 79 210 246
3 131 117 142
3 44 83 231
3 46 73 232
3 85 19 216
3 246 144 273
3 78 211 300
3 113 109 117
3 187 186 264
3 51 81 235
3 53 67 237
3 49 70 222
3 147 150 266
3 178 293 297
3 215 259 297
3 210 239 246
3 131 142 143
3 269 206 296
3 31 72 224
3 235 81 236
3 4 87 270
3 42 86 257
3 67 54 238
3 218 175 260
3 228 88 252
3 293 205 297
3 120 117 131
3 179 181 278
3 186 184 279
3 66 60 262
3 73 47 234
3 166 178 259
3 109 106 255
3 261 216 266
3 86 43 231
3 83 45 232
3 119 203 279
3 162 269 296
3 70 50 235
3 81 52 237
3 260 175 275
3 79 246 273
3 192 274 281
3 73 234 280
3 245 159 295
3 127 221 264
3 229 228 252
3 125 130 245
3 174 277 290
3 277 204 290
3 193 192 272
3 90 40 291
3 103 101 267
3 68 206 269
3 241 247 265
3 119 279 286
3 258 71 302
3 250 68 269
3 142 117 255
3 162 163 269
3 204 196 290
3 182 217 286
3 196 65 270
3 136 236 274
3 272 67 283
3 177 188 268
3 61 62 284
3 223 162 296
3 237 67 272
3 217 119 286
3 58 59 289
3 209 79 273
3 145 147 300
3 174 207 277
3 197 198 288
3 242 241 265
3 159 245 271
3 74 230 263
3 153 131 258
3 244 143 298
3 117 109 255
3 72 159 271
3 71 258 276
3 163 250 269
3 243 70 292
3 206 248 296
3 131 143 258
3 173 225 288
3 175 170 275
3 167 169 285
3 254 190 289
3 267 118 282
3 247 133 265
3 238 213 283
3 205 104 297
3 236 81 281
3 184 182 286
3 143 142 282
3 70 235 292
3 193 272 283
3 88 16 287
3 225 174 290
3 153 258 302
3 66 262 278
3 244 156 276
3 127 264 301
3 235 236 292
3 178 233 293
3 142 267 282
3 268 188 284
3 81 237 281
3 69 57 294
3 159 208 295
3 150 261 266
3 67 238 283
3 259 178 297
3 134 245 295
3 17 256 287
3 233 112 293
3 264 186 301
3 201 153 302
3 41 257 291
3 237 272 281
3 248 223 296
3 256 88 287
3 257 90 291
3 272 192 281
3 279 203 301
3 186 279 301
3 143 282 298

CELL_DATA 538
SCALARS pressure float 1
LOOKUP_TABLE default
20.0
-20.0
-20.0
-20.0
20.0
-20.0
20.0
-20.0
20.0
-20.0
-20.0
-20.0
19.99707794189453
-20.0
-20.0
20.0
-20.0
20.0
-20.0
-20.0
20.0
20.0
20.0
-20.0
-20.0
-20.0
-20.0
-20.0
-20.0
-20.0
20.0
20.0
-20.0
-19.99931526184082
-20.0
20.0
-20.0
-20.0
-20.0
-20.0
20.0
-20.0
19.999998092651367
-20.0
-20.0
-20.0
-20.0
-20.0
20.0
20.0
20.0
-20.0
-20.0
20.0
-20.0
-20.0
-20.0
-20.0
-20.0
-20.0
-20.0
20.0
-20.0
-20.0
-20.0
-20.0
-20.0
-20.0
-19.999814987182617
-19.99931526184082
-20.0
-20.0
-20.0
20.0
-20.0
-20.0
20.0
-20.0
-20.0
-20.0
20.0
-20.0
19.999998092651367
20.0
-20.0
-20.0
-20.0
-20.0
-20.0
-20.0
20.0
-20.0
-20.0
20.0
20.0
-20.0
-20.0
-20.0
20.0
-20.0
-20.0
-20.0
-20.0
-20.0
-20.0
-19.851062774658203
-20.0
19.999998092651367
-20.0
20.0
-20.0
-20.0
-20.0
20.0
-20.0
-20.0
20.0
20.0
20.0
-20.0
-20.0
-20.0
-20.0
-20.0
-20.0
-20.0
20.0
20.0
-20.0
-20.0
-20.0
-20.0
-20.0
-20.0
20.0
-20.0
-20.0
20.0
20.0
-20.0
-20.0
-20.0
-20.0
-20.0
-20.0
-20.0
-20.0
20.0
20.0
-20.0
-20.0
-20.0
-20.0
20.0
20.0
-20.0
-20.0
-20.0
-20.0
20.0
-20.0
-20.0
3.0745859146118164
-20.0
-20.0
20.0
-20.0
-20.0
-20.0
-20.0
-20.0
-20.0
-20.0
20.0
-20.0
-19.99995994567871
20.0
-20.0
20.0
19.99707794189453
19.999996185302734
-20.0
20.0
20.0
-20.0
-19.994848251342773
-20.0
-20.0
-20.0
20.0
-20.0
-20.0
-20.0
-20.0
-20.0
-20.0
-20.0
17.709491729736328
-20.0
-20.0
3.0745859146118164
-20.0
3.0745859146118164
-20.0
-19.999814987182617
-20.0
-20.0
20.0
-19.999998092651367
20.0
-20.0
-20.0
20.0
-20.0
-20.0
20.0
20.0
-20.0
-20.0
-20.0
-19.315309524536133
20.0
20.0
-20.0
19.999996185302734
-20.0
20.0
-20.0
19.999996185302734
20.0
-20.0
-20.0
-20.0
-20.0
-20.0
-20.0
-20.0
20.0
20.0
20.0
-20.0
-20.0
-20.0
-20.0
-19.999998092651367
-20.0
-20.0
-20.0
20.0
-20.0
20.0
19.999088287353516
-20.0
-20.0
-20.0
-20.0
20.0
19.999982833862305
-20.0
-20.0
-20.0
20.0
-20.0
-20.0
-19.809795379638672
-20.0
-20.0
-20.0
-20.0
20.0
-20.0
-20.0
-20.0
-20.0
20.0
-20.0
-20.0
17.71653175354004
-19.99995994567871
-20.0
20.0
20.0
-19.99995994567871
-20.0
-20.0
-20.0
-20.0
-19.99995994567871
3.0745859146118164
-20.0
17.71653175354004
-20.0
-20.0
20.0
20.0
-20.0
-20.0
-20.0
-20.0
-20.0
20.0
20.0
-20.0
-20.0
-20.0
20.0
-19.984695434570312
-20.0
20.0
-20.0
20.0
-20.0
20.0
20.0
-20.0
-20.0
19.99966812133789
20.0
-20.0
-20.0
-20.0
20.0
-19.788318634033203
20.0
-20.0
20.0
-20.0
-20.0
20.0
20.0
-20.0
-20.0
-20.0
-20.0
-20.0
-20.0
-20.0
-20.0
-20.0
-20.0
-20.0
-20.0
-20.0
20.0
17.71653175354004
-20.0
-20.0
-20.0
19.999998092651367
-19.999996185302734
-20.0
20.0
-13.01641845703125
20.0
-19.865516662597656
-20.0
-20.0
-20.0
-20.0
20.0
19.99999237060547
-20.0
-20.0
-20.0
-20.0
-20.0
-20.0
20.0
20.0
20.0
-20.0
-20.0
20.0
-20.0
19.99887466430664
-20.0
20.0
19.99887466430664
20.0
-20.0
20.0
20.0
-20.0
-20.0
20.0
-20.0
20.0
-20.0
20.0
-20.0
20.0
-19.984695434570312
-19.999998092651367
19.99887466430664
-20.0
-20.0
-20.0
-20.0
-20.0
20.0
-20.0
20.0
-20.0
-20.0
-20.0
-20.0
-20.0
-20.0
-20.0
-19.999998092651367
-20.0
-20.0
20.0
-20.0
20.0
-20.0
-20.0
-20.0
-20.0
-20.0
20.0
-19.865516662597656
-20.0
-20.0
-19.999998092651367
19.324844360351562
-20.0
-20.0
-20.0
-20.0
-20.0
-20.0
20.0
18.314697265625
-20.0
-20.0
-20.0
-20.0
-20.0
-20.0
-20.0
20.0
-20.0
-20.0
-20.0
19.999982833862305
-20.0
-20.0
-20.0
-20.0
-20.0
-20.0
-20.0
-20.0
20.0
-20.0
-20.0
-20.0
-20.0
-20.0
-20.0
-19.315309524536133
20.0
-20.0
-19.994848251342773
-19.999900817871094
-19.999996185302734
19.999982833862305
-20.0
-20.0
-20.0
-20.0
-20.0
-20.0
-20.0
20.0
-20.0
-20.0
-20.0
-20.0
20.0
-20.0
-20.0
20.0
-20.0
20.0
-20.0
19.999988555908203
-20.0
-20.0
-19.809795379638672
17.71653175354004
-20.0
19.999088287353516
-19.999998092651367
-20.0
-20.0
-20.0
-20.0
-19.99949836730957
20.0
-20.0
19.18332290649414
-20.0
-20.0
-19.851062774658203
-20.0
-20.0
20.0
-20.0
-20.0
-20.0
19.999988555908203
-20.0
-20.0
-19.865516662597656
-19.999996185302734
-20.0
-20.0
-20.0
-20.0
20.0
-20.0
-20.0
-20.0
20.0
19.993680953979492
-20.0
-20.0
-20.0
-20.0
20.0
20.0
-20.0
-20.0
-20.0
-20.0
-19.851062774658203
