# vtk DataFile Version 2.0
FOR TEST
ASCII
DATASET POLYDATA
POINTS 660 float
-2.240000009536743 3.089999914169312 0.000000000000000
2.240000009536743 3.089999914169312 0.000000000000000
3.640000104904175 -1.169999957084656 0.000000000000000
-3.630000114440918 -1.179999947547913 0.000000000000000
0.000000000000000 -3.819999933242798 0.000000000000000
0.000000000000000 10.000000000000000 0.000000000000000
9.510000228881836 3.089999914169312 0.000000000000000
5.880000114440918 -8.090000152587891 0.000000000000000
-5.880000114440918 -8.090000152587891 0.000000000000000
-9.510000228881836 3.089999914169312 0.000000000000000
-0.149333298206329 9.539333343505859 0.000000000000000
-0.298666685819626 9.078666687011719 0.000000000000000
-0.448000013828278 8.618000030517578 0.000000000000000
-0.597333312034607 8.157333374023438 0.000000000000000
-0.746666729450226 7.696667194366455 0.000000000000000
-0.896000027656555 7.236000061035156 0.000000000000000
-1.045333027839661 6.775332927703857 0.000000000000000
-1.194666981697083 6.314667224884033 0.000000000000000
-1.343999981880188 5.854000091552734 0.000000000000000
-1.493332982063293 5.393332958221436 0.000000000000000
-1.642667055130005 4.932666778564453 0.000000000000000
-1.792000055313110 4.472000122070312 0.000000000000000
-1.941333055496216 4.011332988739014 0.000000000000000
-2.090667009353638 3.550667047500610 0.000000000000000
-2.724667072296143 3.089999914169312 0.000000000000000
-3.209332942962646 3.089999914169312 0.000000000000000
-3.694000005722046 3.089999914169312 0.000000000000000
-4.178667068481445 3.089999914169312 0.000000000000000
-4.663332939147949 3.089999914169312 0.000000000000000
-5.147999763488770 3.089999914169312 0.000000000000000
-5.632667064666748 3.089999914169312 0.000000000000000
-6.117332935333252 3.089999914169312 0.000000000000000
-6.602000236511230 3.089999914169312 0.000000000000000
-7.086667060852051 3.089999914169312 0.000000000000000
-7.571332931518555 3.089999914169312 0.000000000000000
-8.055999755859375 3.089999914169312 0.000000000000000
-8.540666580200195 3.089999914169312 0.000000000000000
-9.025333404541016 3.089999914169312 0.000000000000000
-9.118000030517578 2.805332899093628 0.000000000000000
-8.725999832153320 2.520667076110840 0.000000000000000
-8.333999633789062 2.236000061035156 0.000000000000000
-7.941999912261963 1.951333045959473 0.000000000000000
-7.550000190734863 1.666666984558105 0.000000000000000
-7.157999992370605 1.381999969482422 0.000000000000000
-6.765999794006348 1.097332954406738 0.000000000000000
-6.374000072479248 0.812666714191437 0.000000000000000
-5.981999874114990 0.527999997138977 0.000000000000000
-5.590000152587891 0.243333294987679 0.000000000000000
-5.197999954223633 -0.041333328932524 0.000000000000000
-4.806000232696533 -0.326000005006790 0.000000000000000
-4.414000034332275 -0.610666692256927 0.000000000000000
-4.021999835968018 -0.895333290100098 0.000000000000000
-3.779999971389771 -1.640666961669922 0.000000000000000
-3.930000066757202 -2.101332902908325 0.000000000000000
-4.079999923706055 -2.562000036239624 0.000000000000000
-4.230000019073486 -3.022666931152344 0.000000000000000
-4.380000114440918 -3.483333110809326 0.000000000000000
-4.530000209808350 -3.944000005722046 0.000000000000000
-4.679999828338623 -4.404666900634766 0.000000000000000
-4.829999923706055 -4.865333080291748 0.000000000000000
-4.980000019073486 -5.326000213623047 0.000000000000000
-5.130000114440918 -5.786666870117188 0.000000000000000
-5.280000209808350 -6.247333049774170 0.000000000000000
-5.429999828338623 -6.708000183105469 0.000000000000000
-5.579999923706055 -7.168666839599609 0.000000000000000
-5.730000019073486 -7.629333019256592 0.000000000000000
-5.487999916076660 -7.805333137512207 0.000000000000000
-5.096000194549561 -7.520667076110840 0.000000000000000
-4.703999996185303 -7.236000061035156 0.000000000000000
-4.311999797821045 -6.951333045959473 0.000000000000000
-3.920000076293945 -6.666666984558105 0.000000000000000
-3.528000116348267 -6.381999969482422 0.000000000000000
-3.135999917984009 -6.097332954406738 0.000000000000000
-2.743999958038330 -5.812666893005371 0.000000000000000
-2.351999998092651 -5.527999877929688 0.000000000000000
-1.960000038146973 -5.243332862854004 0.000000000000000
-1.567999958992004 -4.958666801452637 0.000000000000000
-1.175999999046326 -4.673999786376953 0.000000000000000
-0.783999979496002 -4.389332771301270 0.000000000000000
-0.391999989748001 -4.104667186737061 0.000000000000000
0.391999989748001 -4.104667186737061 0.000000000000000
0.783999979496002 -4.389332771301270 0.000000000000000
1.175999999046326 -4.673999786376953 0.000000000000000
1.567999958992004 -4.958666801452637 0.000000000000000
1.960000038146973 -5.243332862854004 0.000000000000000
2.351999998092651 -5.527999877929688 0.000000000000000
2.743999958038330 -5.812666893005371 0.000000000000000
3.135999917984009 -6.097332954406738 0.000000000000000
3.528000116348267 -6.381999969482422 0.000000000000000
3.920000076293945 -6.666666984558105 0.000000000000000
4.311999797821045 -6.951333045959473 0.000000000000000
4.703999996185303 -7.236000061035156 0.000000000000000
5.096000194549561 -7.520667076110840 0.000000000000000
5.487999916076660 -7.805333137512207 0.000000000000000
5.730667114257812 -7.628666877746582 0.000000000000000
5.581333160400391 -7.167333126068115 0.000000000000000
5.432000160217285 -6.705999851226807 0.000000000000000
5.282667160034180 -6.244667053222656 0.000000000000000
5.133333206176758 -5.783332824707031 0.000000000000000
4.984000205993652 -5.322000026702881 0.000000000000000
4.834667205810547 -4.860667228698730 0.000000000000000
4.685332775115967 -4.399333000183105 0.000000000000000
4.535999774932861 -3.937999963760376 0.000000000000000
4.386666774749756 -3.476666927337646 0.000000000000000
4.237332820892334 -3.015332937240601 0.000000000000000
4.087999820709229 -2.553999900817871 0.000000000000000
3.938667058944702 -2.092667102813721 0.000000000000000
3.789333105087280 -1.631332993507385 0.000000000000000
4.031332969665527 -0.885999977588654 0.000000000000000
4.422667026519775 -0.601999998092651 0.000000000000000
4.814000129699707 -0.317999988794327 0.000000000000000
5.205333232879639 -0.034000001847744 0.000000000000000
5.596666812896729 0.250000000000000 0.000000000000000
5.987999916076660 0.533999979496002 0.000000000000000
6.379333019256592 0.818000018596649 0.000000000000000
6.770667076110840 1.101999998092651 0.000000000000000
7.162000179290771 1.386000037193298 0.000000000000000
7.553332805633545 1.669999957084656 0.000000000000000
7.944666862487793 1.953999996185303 0.000000000000000
8.336000442504883 2.237999916076660 0.000000000000000
8.727333068847656 2.522000074386597 0.000000000000000
9.118666648864746 2.805999994277954 0.000000000000000
9.025333404541016 3.089999914169312 0.000000000000000
8.540666580200195 3.089999914169312 0.000000000000000
8.055999755859375 3.089999914169312 0.000000000000000
7.571332931518555 3.089999914169312 0.000000000000000
7.086667060852051 3.089999914169312 0.000000000000000
6.602000236511230 3.089999914169312 0.000000000000000
6.117332935333252 3.089999914169312 0.000000000000000
5.632667064666748 3.089999914169312 0.000000000000000
5.147999763488770 3.089999914169312 0.000000000000000
4.663332939147949 3.089999914169312 0.000000000000000
4.178667068481445 3.089999914169312 0.000000000000000
3.694000005722046 3.089999914169312 0.000000000000000
3.209332942962646 3.089999914169312 0.000000000000000
2.724667072296143 3.089999914169312 0.000000000000000
2.090667009353638 3.550667047500610 0.000000000000000
1.941333055496216 4.011332988739014 0.000000000000000
1.792000055313110 4.472000122070312 0.000000000000000
1.642667055130005 4.932666778564453 0.000000000000000
1.493332982063293 5.393332958221436 0.000000000000000
1.343999981880188 5.854000091552734 0.000000000000000
1.194666981697083 6.314667224884033 0.000000000000000
1.045333027839661 6.775332927703857 0.000000000000000
0.896000027656555 7.236000061035156 0.000000000000000
0.746666729450226 7.696667194366455 0.000000000000000
0.597333312034607 8.157333374023438 0.000000000000000
0.448000013828278 8.618000030517578 0.000000000000000
0.298666685819626 9.078666687011719 0.000000000000000
0.149333298206329 9.539333343505859 0.000000000000000
3.325796604156494 -1.415990352630615 0.000000000000000
3.293615341186523 -0.962857723236084 0.000000000000000
-2.706294298171997 2.514981031417847 0.000000000000000
-1.931938648223877 2.732334375381470 0.000000000000000
-3.319366931915283 -1.488271355628967 0.000000000000000
-3.089331150054932 -1.228461503982544 0.000000000000000
2.965150833129883 -1.553300857543945 0.000000000000000
2.686710357666016 -0.932772755622864 0.000000000000000
-2.939363002777100 -1.574875950813293 0.000000000000000
-2.666551113128662 -0.831995964050293 0.000000000000000
1.899279117584229 3.214713096618652 0.000000000000000
1.773829460144043 2.690091371536255 0.000000000000000
2.322217226028442 -1.227678537368774 0.000000000000000
2.355341911315918 -0.963225126266479 0.000000000000000
-2.388535499572754 -1.394145131111145 0.000000000000000
-2.317089319229126 -0.950668394565582 0.000000000000000
1.958062648773193 -1.334403157234192 0.000000000000000
1.750410795211792 -0.674079418182373 0.000000000000000
1.541718482971191 -1.115775704383850 0.000000000000000
1.248689651489258 -0.633228421211243 0.000000000000000
1.353790044784546 2.723889589309692 0.000000000000000
3.462580442428589 2.792725563049316 0.000000000000000
-1.813770294189453 -1.180780172348022 0.000000000000000
-1.822483539581299 -0.869901418685913 0.000000000000000
-4.345921516418457 -0.261399835348129 0.000000000000000
2.586903572082520 -0.358979582786560 0.000000000000000
2.488772869110107 -1.699556350708008 0.000000000000000
-2.622537374496460 -1.675435781478882 0.000000000000000
-1.391406059265137 4.642547130584717 0.000000000000000
-2.597136974334717 -0.469857901334763 0.000000000000000
[...]
CELL_DATA 1168
SCALARS pressure float 1
LOOKUP_TABLE default
2.608238697052002
0.1504533588886261
0.08542918413877487
0.6174964308738708
0.3167784810066223
-0.4265528619289398
1.1999132633209229
2.9964425563812256
31.410619735717773
-0.6469224095344543
0.3143315017223358
-0.45310381054878235
-3.394195795059204
-0.3369036614894867
-2.9266905784606934
4.444913387298584
0.6297723650932312
0.7688080668449402
2.608238697052002
1.1030149459838867
0.8148083090782166
1.2429980039596558
0.24571602046489716
-4.243206024169922
1.1999132633209229
-0.23101986944675446
36.951080322265625
20.433361053466797
-0.34485915303230286
0.8157331347465515
-0.011002984829246998
0.22742663323879242
-1.9184679985046387
1.833794355392456
-0.6469224095344543
-0.24645565450191498
-11.57425308227539
2.868757486343384
0.8500605821609497
-11.15780258178711
-1.167549729347229
19.403011322021484
-0.05317341536283493
11.89941120147705
0.8157331347465515
-0.34485915303230286
-12.319347381591797
-0.05993909761309624
-12.937581062316895
3.789598226547241
1.8423922061920166
-0.20107783377170563
2.5596165657043457
-0.6240962147712708
1.7470601797103882
4.366731643676758
0.597564160823822
0.4996671974658966
1.6085370779037476
-0.4133947491645813
0.9725425243377686
-1.5712857246398926
-1.0110472440719604
0.5143246650695801
-7.789224624633789
0.41224053502082825
0.2726677358150482
3.1726109981536865
-0.15757118165493011
-0.29902681708335876
1.6397535800933838
69.9477310180664
-0.3377859890460968
0.06784409284591675
-3.251272201538086
1.4032478332519531
-1.0300190448760986
-5.194355487823486
-2.5957181453704834
0.041318152099847794
2.332233428955078
2.6689250469207764
-0.6023791432380676
0.016137808561325073
8.157942771911621
0.39407530426979065
-8.1372709274292
1.8162589073181152
5.582151889801025
-0.8700284957885742
0.6055025458335876
1.6025753021240234
10.052785873413086
-0.6570923328399658
-0.2175855189561844
-1.1355069875717163
1.0120326280593872
1.4072210788726807
20.433361053466797
-0.4471724331378937
1762.275390625
-11.57425308227539
0.15118488669395447
1.9848346710205078e-05
0.6055025458335876
2.0175321102142334
-2.9266905784606934
0.8322532773017883
-0.2583063840866089
-2.5957181453704834
-0.16364650428295135
-0.4428900480270386
-1.210667610168457
-0.4303279221057892
-0.8700284957885742
-0.7847819924354553
-0.07874138653278351
-0.3369036614894867
1.106527328491211
0.07488270848989487
0.42408740520477295
0.016137808561325073
1.5890456438064575
-0.8102228045463562
1.264288306236267
-0.5313442349433899
-1.264288306236267
0.0
1.2339441776275635
-0.5382934808731079
0.05230913683772087
-4.857439994812012
-1.4658135175704956
0.39849987626075745
-0.8506289720535278
-0.07874138653278351
-0.9861153364181519
-0.3377859890460968
-1.2198423147201538
0.33248603343963623
-0.3160451054573059
-4.7128214836120605
-0.8454594612121582
1.4894222021102905
-1.0197685956954956
3.230445384979248
1.1066083908081055
-0.05993909761309624
-0.837929904460907
-2.306278944015503
0.9155887365341187
-2.477663278579712
-1.9185885190963745
8.157942771911621
-1.3487986326217651
-24.05265998840332
-0.21094997227191925
1.9461731910705566
5.582151889801025
0.13543392717838287
-0.30787596106529236
0.1504533588886261
0.42213863134384155
0.6174964308738708
2.477663278579712
0.8402017951011658
5.8825507164001465
1.2339441776275635
-5.51451301574707
1.8162589073181152
-0.34987229108810425
-10.099015235900879
1762.275390625
-0.49611610174179077
1.6025753021240234
-3.0555872917175293
0.08627833425998688
-0.34987229108810425
1.0688154697418213
0.2502090334892273
3.4823124408721924
-0.860316812992096
-1.1484076976776123
0.18585459887981415
0.0676465630531311
-0.15757118165493011
-0.1399010568857193
-0.3377859890460968
-0.011002984829246998
0.08627833425998688
-2.0694656372070312
1.7414634227752686
0.33221355080604553
2.5596165657043457
-4.243206024169922
-1.1355069875717163
-0.2175855189561844
1.9461731910705566
1.1051805019378662
-0.6469224095344543
-0.8506289720535278
11.107285499572754
0.33221355080604553
1.5890456438064575
-17.81200408935547
-0.4520145654678345
-1.1015406847000122
-1.218374252319336
0.13543392717838287
1.1999132633209229
0.20489701628684998
27.04068946838379
0.6656449437141418
-0.4865373373031616
-4.7128214836120605
2.237762928009033
1.2725292444229126
-4.711414813995361
-1.1355069875717163
-0.6469224095344543
-0.2175855189561844
-0.8506289720535278
-0.2583063840866089
20.433361053466797
0.13543392717838287
0.0676465630531311
-1.0410163402557373
0.997207522392273
11.67121696472168
11.89941120147705
0.544236421585083
-0.16364650428295135
-0.8102228045463562
0.4083578884601593
0.17367669939994812
1.0236294269561768
0.544236421585083
-0.619575560092926
-0.6570923328399658
0.13543392717838287
-0.13463643193244934
0.49470004439353943
0.32383692264556885
3.4432387351989746
0.544236421585083
-0.13463643193244934
0.15826639533042908
-1.0410163402557373
3.5042994022369385
-0.3903812766075134
0.17367669939994812
-0.4890908896923065
0.15320473909378052
-0.3903812766075134
-2.0231401920318604
1.925397515296936
0.15826639533042908
-0.7610224485397339
1.4266479015350342
-0.8102228045463562
-1.605400562286377
0.36561381816864014
1.1390018463134766
0.4428900480270386
0.6549996137619019
3.4432387351989746
11.720894813537598
-1.2227386236190796
4.366731643676758
0.33248603343963623
20.368494033813477
-5.272566795349121
0.3300746977329254
0.32383692264556885
0.6675392985343933
0.3300746977329254
0.46504947543144226
4.366731643676758
2.6475508213043213
1.0236294269561768
-5.272566795349121
-6.30060338973999
0.32383692264556885
-0.04561006650328636
11.720894813537598
-1.199196219444275
1.0368373394012451
4.5716047286987305
-0.7610224485397339
0.026755841448903084
-1.0410163402557373
1.1390018463134766
0.15365278720855713
1.692254662513733
1.9442273378372192
-1.2227386236190796
4.5716047286987305
20.368494033813477
0.2811735272407532
-4.785953521728516
-11.57425308227539
1.692254662513733
-13.44302749633789
-0.13463643193244934
-2.2336108684539795
0.7565476894378662
-0.8102228045463562
-0.46122124791145325
-0.16738998889923096
1.387817144393921
-0.6634590029716492
-1.2809773683547974
-2.2336108684539795
0.06784409284591675
-2.148552894592285
0.026755841448903084
0.756645143032074
0.2811735272407532
-0.5012604594230652
-0.46122124791145325
3.6511921882629395
0.011511683464050293
-0.6502169370651245
-5.272566795349121
0.026755841448903084
-8.1372709274292
0.18631602823734283
0.026755841448903084
1.66523277759552
0.34960901737213135
0.6164224147796631
2.148552894592285
0.2941334545612335
0.15365278720855713
5.610362529754639
-1.0368373394012451
4.882527828216553
-0.8595103621482849
-0.46953245997428894
-0.21094997227191925
0.6675392985343933
-5.194355487823486
-2.219102144241333
0.42331594228744507
-1.692254662513733
-0.6459357738494873
1.9442273378372192
0.42331594228744507
-0.6502169370651245
15.755010604858398
-1.7614909410476685
-3.590747356414795
-2.1452279090881348
-5.272566795349121
-1.2260109186172485
-1.199196219444275
3.8889334201812744
-0.9615088105201721
0.24571602046489716
-0.46953245997428894
357.6058044433594
0.5801722407341003
-0.05890265107154846
-5.626023292541504
4.034355163574219
0.40154215693473816
-0.05890265107154846
0.16738998889923096
-1.199196219444275
-0.04561006650328636
-5.626023292541504
-0.33824124932289124
4.034355163574219
-0.6502169370651245
-1.0368373394012451
357.6058044433594
-1.7614909410476685
1.66523277759552
-0.6459357738494873
0.5663630962371826
-3.4432387351989746
-0.20736050605773926
-12.41471004486084
-1.3548128604888916
0.9373231530189514
-6.199859619140625
12.185744285583496
0.16738998889923096
0.9373231530189514
0.4133947491645813
-4.559922695159912
-0.1796710342168808
-0.2583063840866089
-1.301416277885437
0.5801722407341003
7.344491481781006
2.2061619758605957
2.148552894592285
1.1768244504928589
-0.8595103621482849
-1.1258876323699951
-0.45310381054878235
2.332233428955078
-2.2089953422546387
-0.5012604594230652
-0.3300746977329254
-1.301416277885437
-13.310128211975098
-2.2089953422546387
-0.6634590029716492
0.8157331347465515
-1.692254662513733
0.9373231530189514
-1.237188458442688
-1.4807854890823364
-0.036416999995708466
-16.67672348022461
-1.0924869775772095
1.0814363956451416
-0.6912162899971008
-0.45310381054878235
-0.47172877192497253
-0.5012604594230652
-0.9163479804992676
-4.559922695159912
-1.9096685647964478
5.363799095153809
-0.4650883078575134
7.344491481781006
5.363799095153809
1.0814363956451416
0.2050323635339737
0.2050323635339737
-0.6912162899971008
-0.1796710342168808
2.2061619758605957
0.7610224485397339
-2.098031759262085
-30.863737106323242
0.15365278720855713
-0.2686273157596588
0.05230913683772087
8.463370323181152
-20.368494033813477
-0.2686273157596588
-0.20260398089885712
0.3143315017223358
-2.934009313583374
0.2050323635339737
-5.295810222625732
-0.4491663873195648
-0.7420711517333984
-0.6634590029716492
-0.5012604594230652
3.4823124408721924
4.535597801208496
-4.559922695159912
-0.1796710342168808
0.5713080763816833
-0.20260398089885712
0.0
2.33651065826416
-12.41471004486084
-1.237188458442688
-0.3832278251647949
-0.10574162006378174
1.289827823638916
-3.251272201538086
-1.3646656274795532
3.6471340656280518
-0.6912162899971008
12.526268005371094
1762.275390625
0.33221858739852905
-0.3832278251647949
-0.2686273157596588
1.6025753021240234
-5.626023292541504
-1.3646656274795532
-2.934009313583374
-5.171608924865723
-1.3908183574676514
-2.2089953422546387
-1.2260109186172485
-2.8969032764434814
0.5713080763816833
-2.4382846355438232
2.2812678813934326
0.5465485453605652
1762.275390625
0.1258241832256317
0.33221858739852905
-3.448993682861328
1.5683727264404297
-0.7420711517333984
0.6874618530273438
-16.67672348022461
-1.006036639213562
3.6471340656280518
-1.6010711193084717
0.5292709469795227
0.5292709469795227
1.0120326280593872
-30.863737106323242
0.33221858739852905
0.1258241832256317
0.1258241832256317
0.392586886882782
0.12002984434366226
-2.8969032764434814
0.8681632876396179
-0.01734713837504387
2.253722667694092
0.1258241832256317
0.33221858739852905
-0.01734713837504387
-0.017955325543880463
-0.471478134393692
-0.471478134393692
1.4759958982467651
-5.4218621253967285
0.6297723650932312
0.20489701628684998
0.20489701628684998
-2.3999648094177246
-0.6630043387413025
-0.5167306065559387
-0.6630043387413025
0.4805907607078552
1.7246167659759521
-0.9253895878791809
-0.5167306065559387
0.7939250469207764
2.5320847034454346
1.2498581409454346
2.5320847034454346
-0.9253895878791809
4.446743011474609
-1.2498581409454346
-1.7246167659759521
-4.333382606506348
12.883500099182129
12.883500099182129
4.333382606506348
1.4735122919082642
-0.20260398089885712
0.7939250469207764
-1.5234310626983643
-2.5320847034454346
-1.7246167659759521
-4.446743011474609
-0.6630043387413025
-0.6630043387413025
-1.1015406847000122
2.4382846355438232
0.21105681359767914
-0.7922703623771667
-0.23340028524398804
0.42408740520477295
0.46504947543144226
-0.6634590029716492
0.21105681359767914
-0.860316812992096
1.0084244012832642
0.4199584722518921
-0.0037270640023052692
0.2050323635339737
1.0084244012832642
2.33651065826416
0.005592793691903353
-0.6912162899971008
-0.45144614577293396
-0.0037270640023052692
0.23481738567352295
-2.574130058288574
1.289827823638916
-2.3626585006713867
-0.45144614577293396
8.157942771911621
-0.12355071306228638
-0.0037270640023052692
0.005592793691903353
-0.5646357536315918
-16.67672348022461
-6.199859619140625
0.22742663323879242
0.42331594228744507
1.9863483905792236
4.535597801208496
11.17807674407959
-1.7470601797103882
-1.4807854890823364
-1.0540920495986938
0.5913125872612
1.0688154697418213
4.535597801208496
-0.9163479804992676
2.2812678813934326
-0.4650883078575134
0.5913125872612
-3.0555872917175293
-1.7470601797103882
2.574130058288574
4.446743011474609
1.1768244504928589
-0.7703093886375427
0.8681632876396179
1.9863483905792236
7.344491481781006
1.9863483905792236
-6.199859619140625
-0.9615088105201721
-0.20736050605773926
0.011511683464050293
-0.8685666918754578
0.8681632876396179
-5.507479667663574
0.8307050466537476
-8.049717903137207
-1.237188458442688
1.7470601797103882
-1.4565526247024536
-1.6351220607757568
-5.626023292541504
0.31063559651374817
-16.67672348022461
1.1390018463134766
2.2061619758605957
2.868757486343384
11.286412239074707
7.344491481781006
-0.8685666918754578
-0.09106525033712387
4.034355163574219
-6.199859619140625
0.8500605821609497
-0.043560758233070374
4.753626346588135
34.38075256347656
-0.204191654920578
-0.5241934061050415
-1.696389079093933
-1.4807854890823364
-1.001706600189209
2.712313413619995
-0.3419043719768524
4.816906929016113
-1.4807854890823364
-1.1969707012176514
-1.178756833076477
-0.619575560092926
11.286412239074707
0.42331594228744507
1.289827823638916
1.0291593074798584
-0.4199584722518921
-1.0703727006912231
-3.1877176761627197
0.2416153997182846
-0.4650883078575134
-0.05890265107154846
-1.696389079093933
-5.507479667663574
1.6801143884658813
-1.0924869775772095
-0.09106525033712387
-0.46953245997428894
-1.0924869775772095
-1.178756833076477
-2.6215860843658447
-24.05265998840332
-0.29902681708335876
0.713762104511261
1.925397515296936
1.1768244504928589
1.6353659629821777
-2.4518041610717773
0.10256005823612213
2.712313413619995
-5.507479667663574
1.66523277759552
-0.4890908896923065
1.1768244504928589
-1.0703727006912231
1.6801143884658813
0.4068615436553955
1.833794355392456
4.816906929016113
-5.507479667663574
-1.1969707012176514
1.1390018463134766
-1.001706600189209
-1.2807490825653076
-0.3305183947086334
0.011511683464050293
0.15365278720855713
4.5716047286987305
-1.6351220607757568
-1.6351220607757568
-0.039562493562698364
-0.4890908896923065
-0.3419043719768524
4.816906929016113
-9.80754566192627
-1.001706600189209
0.15320473909378052
-4.857439994812012
0.15320473909378052
119.2011489868164
69.9477310180664
-0.4890908896923065
-0.46953245997428894
-1.178756833076477
-3.2677409648895264
4.816906929016113
-1.6351220607757568
-0.3523123562335968
-0.8194997906684875
0.7790260910987854
1.925397515296936
-3.2677409648895264
1.6801143884658813
-0.30406874418258667
0.6569046378135681
0.09644508361816406
0.5301578044891357
1.2067489624023438
4.5716047286987305
1.0856269598007202
0.18631602823734283
0.09390641748905182
3.2253143787384033
0.4788431227207184
-0.3305183947086334
-10.996909141540527
1.962968111038208
-1.605400562286377
0.42155489325523376
-0.8194997906684875
-0.7646633386611938
-0.44430434703826904
-2.027618885040283
0.09644508361816406
0.5217510461807251
-0.17829589545726776
1.2067489624023438
0.5217510461807251
2.0175321102142334
-7.449660301208496
0.6912149786949158
-0.4303279221057892
1.8162589073181152
1.6397535800933838
-0.25677403807640076
0.12002984434366226
-2.4168007373809814
0.5713080763816833
-0.15757118165493011
-0.10574162006378174
2.759167194366455
-4.446743011474609
10.651254653930664
-0.036416999995708466
-0.20260398089885712
0.10399652272462845
-0.3903812766075134
0.17060208320617676
-19.62516212463379
2.3647220134735107
3.1726109981536865
-3.7720324993133545
-0.45144614577293396
-1.0924869775772095
-0.2944973409175873
27.04068946838379
0.2502090334892273
1.8947879076004028
-0.6570923328399658
-1.0300190448760986
-2.131255865097046
11.67121696472168
-13.889904975891113
-2.6054913997650146
-0.41697099804878235
0.8345382809638977
-0.2686273157596588
1.0856269598007202
4.535597801208496
31.410619735717773
0.5801722407341003
0.20489701628684998
-1.6680307388305664
3.5042994022369385
19.403011322021484
4.882527828216553
-12.319347381591797
119.2011489868164
0.4805907607078552
3.6511921882629395
-2.8170042037963867
-0.20736050605773926
-0.9615088105201721
-0.4199584722518921
0.39407530426979065
0.6901339292526245
2.3626585006713867
-0.204191654920578
-1.696389079093933
-1.0674052238464355
-0.9861153364181519
0.680229127407074
0.8307050466537476
-0.4865373373031616
-0.8165713548660278
1.4072210788726807
-3.0351221561431885
6.599676132202148
-0.21094997227191925
-24.05265998840332
0.41224053502082825
0.42408740520477295
-0.7749070525169373
34.38075256347656
0.8500605821609497
-0.3369036614894867
3.003279685974121
1.2198423147201538
-0.4471724331378937
0.0676465630531311
2.705979108810425
0.8477482795715332
0.42155489325523376
0.016137808561325073
11.89941120147705
2.4382846355438232
0.060485173016786575
0.30787596106529236
-0.10574162006378174
-7.374046325683594
-0.7847819924354553
0.46504947543144226
-0.46122124791145325
0.42931199073791504
-0.5974156856536865
0.5913125872612
1.962968111038208
0.9861153364181519
0.8464150428771973
-0.039562493562698364
-2.934009313583374
1.6085370779037476
-0.4068615436553955
1.95108962059021
0.5465485453605652
2.237762928009033
0.9253895878791809
-0.4042978286743164
-2.477663278579712
-5.295810222625732
-12.883500099182129
-1.1484076976776123
-0.837929904460907
-5.194355487823486
-0.4650883078575134
0.011511683464050293
-1.1410572528839111
-0.662218451499939
-4.7128214836120605
1.9863483905792236
1.9207360744476318
-8.049717903137207
0.6874618530273438
-1.2809773683547974
-119.2011489868164
-0.860316812992096
1.2198423147201538
0.8477482795715332
-0.4805907607078552
0.30787596106529236
-4.882527828216553
-9.80754566192627
-3.394195795059204
-0.04561006650328636
1.4032478332519531
-0.24645565450191498
-1.420181393623352
0.8464150428771973
3.1726109981536865
1.1051805019378662
-1.6010711193084717
1.962968111038208
2.33651065826416
1.106527328491211
0.5962507128715515
-1.167549729347229
11.67121696472168
3.742006540298462
-0.005592793691903353
-1.2496819496154785
-0.49611610174179077
10.052785873413086
0.3325425684452057
0.49470004439353943
0.18585459887981415
0.17060208320617676
6.462563991546631
-0.6683056950569153
-0.6164224147796631
0.11366479843854904
-1.6680307388305664
-2.3626585006713867
0.6569046378135681
-1.3908183574676514
1.9848346710205078e-05
-0.1504533588886261
1.0197685956954956
0.3167784810066223
3.4823124408721924
-1.237188458442688
-0.4471724331378937
0.8698395490646362
1.8423922061920166
-4.785953521728516
1.7318300008773804
0.5639519691467285
-2.4168007373809814
-0.23101986944675446
-1.1484076976776123
11.286412239074707
-1.1015406847000122
0.597564160823822
1.4266479015350342
4.753626346588135
-4.559922695159912
-2.4382846355438232
-0.34485915303230286
0.40154215693473816
2.4338316917419434
-0.4865373373031616
-4.243206024169922
-11.15780258178711
-0.5974156856536865
1.5683727264404297
3.354466438293457
-4.711414813995361
-2.098031759262085
-0.20107783377170563
-2.0355308055877686
0.4133947491645813
-10.996909141540527
1.5890456438064575
0.8681632876396179
-1.914516568183899
2.3999648094177246
0.6675392985343933
-4.333382606506348
5.610362529754639
0.8345382809638977
0.4428900480270386
-2.3999648094177246
0.9725425243377686
13.889904975891113
-0.10132169723510742
0.42155489325523376
0.36561381816864014
0.392586886882782
0.8698395490646362
0.5217510461807251
0.46504947543144226
-1.2809773683547974
1.0291593074798584
0.7688080668449402
-0.0037270640023052692
-12.319347381591797
0.060485173016786575
-1.9185885190963745
3.003279685974121
-1.7817076444625854
-0.12887133657932281
19.403011322021484
-0.13010036945343018
0.5663630962371826
0.10554951429367065
0.36126741766929626
0.7939250469207764
-357.6058044433594
1.0399295091629028
-1.5907763242721558
-1.6969178915023804
2.0175321102142334
-0.662218451499939
-1.2807490825653076
-0.9694327116012573
0.597564160823822
-1.9559292793273926
0.8322532773017883
-0.043560758233070374
4.753626346588135
0.1301228553056717
0.4068615436553955
0.6549996137619019
1.9217573404312134
0.36126741766929626
0.42931199073791504
-0.5926393270492554
0.3729357123374939
1.2498581409454346
-0.15757118165493011
0.07488270848989487
1.95108962059021
-0.7899093627929688
1.8162589073181152
0.22971586883068085
-1.1410572528839111
0.2416153997182846
0.392586886882782
-0.9163479804992676
-0.7847819924354553
0.40154215693473816
2.705979108810425
11.17807674407959
1.9207360744476318
-0.3419043719768524
-0.4805907607078552
0.34417545795440674
0.9725425243377686