# vtk DataFile Version 2.0
FOR TEST
ASCII
DATASET POLYDATA
POINTS 303 float
50.000000000000000 50.000000000000000 0.000000000000000
-50.000000000000000 50.000000000000000 0.000000000000000
-50.000000000000000 -50.000000000000000 0.000000000000000
50.000000000000000 -50.000000000000000 0.000000000000000
-40.339031219482422 50.000000000000000 0.000000000000000
-31.144729614257812 50.000000000000000 0.000000000000000
-22.394569396972656 50.000000000000000 0.000000000000000
-14.067070007324219 50.000000000000000 0.000000000000000
-6.141838073730469 50.000000000000000 0.000000000000000
1.400568962097168 50.000000000000000 0.000000000000000
8.578641891479492 50.000000000000000 0.000000000000000
15.409979820251465 50.000000000000000 0.000000000000000
21.911329269409180 50.000000000000000 0.000000000000000
28.098630905151367 50.000000000000000 0.000000000000000
33.987060546875000 50.000000000000000 0.000000000000000
39.591049194335938 50.000000000000000 0.000000000000000
44.924339294433594 50.000000000000000 0.000000000000000
50.000000000000000 45.043388366699219 0.000000000000000
50.000000000000000 39.349739074707031 0.000000000000000
50.000000000000000 32.809448242187500 0.000000000000000
50.000000000000000 25.296630859375000 0.000000000000000
50.000000000000000 16.666669845581055 0.000000000000000
50.000000000000000 6.753441810607910 0.000000000000000
50.000000000000000 -4.633861064910889 0.000000000000000
50.000000000000000 -17.714439392089844 0.000000000000000
50.000000000000000 -32.740081787109375 0.000000000000000
32.026348114013672 -50.000000000000000 0.000000000000000
17.121690750122070 -50.000000000000000 0.000000000000000
4.761994838714600 -50.000000000000000 0.000000000000000
-5.487283229827881 -50.000000000000000 0.000000000000000
-13.986499786376953 -50.000000000000000 0.000000000000000
-21.034479141235352 -50.000000000000000 0.000000000000000
-26.879020690917969 -50.000000000000000 0.000000000000000
-31.725599288940430 -50.000000000000000 0.000000000000000
-35.744628906250000 -50.000000000000000 0.000000000000000
-39.077411651611328 -50.000000000000000 0.000000000000000
-41.841129302978516 -50.000000000000000 0.000000000000000
-44.132930755615234 -50.000000000000000 0.000000000000000
-46.033420562744141 -50.000000000000000 0.000000000000000
-47.609390258789062 -50.000000000000000 0.000000000000000
-48.916271209716797 -50.000000000000000 0.000000000000000
-50.000000000000000 -48.971099853515625 0.000000000000000
-50.000000000000000 -47.846931457519531 0.000000000000000
-50.000000000000000 -46.618648529052734 0.000000000000000
-50.000000000000000 -45.276641845703125 0.000000000000000
-50.000000000000000 -43.810348510742188 0.000000000000000
-50.000000000000000 -42.208290100097656 0.000000000000000
-50.000000000000000 -40.457870483398438 0.000000000000000
-50.000000000000000 -38.545360565185547 0.000000000000000
-50.000000000000000 -36.455749511718750 0.000000000000000
-50.000000000000000 -34.172641754150391 0.000000000000000
-50.000000000000000 -31.678119659423828 0.000000000000000
-50.000000000000000 -28.952600479125977 0.000000000000000
-50.000000000000000 -25.974689483642578 0.000000000000000
-50.000000000000000 -22.721029281616211 0.000000000000000
-50.000000000000000 -19.166080474853516 0.000000000000000
-50.000000000000000 -15.281929969787598 0.000000000000000
-50.000000000000000 -11.038109779357910 0.000000000000000
-50.000000000000000 -6.401302814483643 0.000000000000000
-50.000000000000000 -1.335127949714661 0.000000000000000
-50.000000000000000 4.200179100036621 0.000000000000000
-50.000000000000000 10.248060226440430 0.000000000000000
-50.000000000000000 16.855979919433594 0.000000000000000
-50.000000000000000 24.075799942016602 0.000000000000000
-50.000000000000000 31.964179992675781 0.000000000000000
-50.000000000000000 40.583038330078125 0.000000000000000
-47.125080108642578 -0.316683292388916 0.000000000000000
-47.088890075683594 -25.201387405395508 0.000000000000000
-2.025200843811035 45.811328887939453 0.000000000000000
-46.306346893310547 -13.101158142089844 0.000000000000000
-47.542060852050781 -34.745429992675781 0.000000000000000
-2.671883344650269 -43.283573150634766 0.000000000000000
-25.534835815429688 -44.061992645263672 0.000000000000000
-47.851356506347656 -41.672885894775391 0.000000000000000
19.346330642700195 42.927337646484375 0.000000000000000
-43.949550628662109 18.813644409179688 0.000000000000000
43.133247375488281 -0.773065567016602 0.000000000000000
-37.492755889892578 -47.650524139404297 0.000000000000000
42.046104431152344 23.190017700195312 0.000000000000000
-44.883842468261719 -48.798191070556641 0.000000000000000
-16.937900543212891 41.692466735839844 0.000000000000000
-47.736354827880859 -30.712833404541016 0.000000000000000
30.849872589111328 46.349765777587891 0.000000000000000
-48.240142822265625 -44.844684600830078 0.000000000000000
22.598939895629883 -37.274749755859375 0.000000000000000
43.248966217041016 35.473636627197266 0.000000000000000
-49.061992645263672 -47.628765106201172 0.000000000000000
-34.835731506347656 43.031524658203125 0.000000000000000
43.511859893798828 46.307617187500000 0.000000000000000
35.231048583984375 -25.492370605468750 0.000000000000000
-48.193283081054688 -48.926548004150391 0.000000000000000
39.904468536376953 -8.588621139526367 0.000000000000000
27.681327819824219 -4.995959281921387 0.000000000000000
30.582872390747070 9.128515243530273 0.000000000000000
24.644226074218750 4.308848857879639 0.000000000000000
26.748878479003906 11.326414108276367 0.000000000000000
14.003908157348633 7.088906764984131 0.000000000000000
13.561153411865234 -3.328968524932861 0.000000000000000
8.049622535705566 4.411538600921631 0.000000000000000
7.772796630859375 -3.473096847534180 0.000000000000000
0.154957771301270 -1.448384761810303 0.000000000000000
-3.934081077575684 -5.149696350097656 0.000000000000000
-9.393906593322754 -2.946101665496826 0.000000000000000
-11.522283554077148 -10.633628845214844 0.000000000000000
-8.755788803100586 3.617310523986816 0.000000000000000
-14.911259651184082 -7.436645030975342 0.000000000000000
-17.077919006347656 -12.021401405334473 0.000000000000000
-20.898593902587891 -7.540153503417969 0.000000000000000
-22.348236083984375 -16.095951080322266 0.000000000000000
-17.797605514526367 -19.730911254882812 0.000000000000000
-25.723794937133789 -20.804948806762695 0.000000000000000
-23.524267196655273 -1.514781951904297 0.000000000000000
8.868602752685547 15.656377792358398 0.000000000000000
-20.302808761596680 -26.014156341552734 0.000000000000000
-25.211626052856445 -27.593791961669922 0.000000000000000
-29.574197769165039 -23.597085952758789 0.000000000000000
-32.001735687255859 -27.874547958374023 0.000000000000000
-13.931254386901855 -23.737447738647461 0.000000000000000
5.239245891571045 -13.212126731872559 0.000000000000000
-28.917325973510742 -9.928811073303223 0.000000000000000
-15.451079368591309 -29.942317962646484 0.000000000000000
-35.457504272460938 -25.549791336059570 0.000000000000000
-34.959808349609375 -29.187370300292969 0.000000000000000
-32.231933593750000 -34.520011901855469 0.000000000000000
-36.292152404785156 -35.409889221191406 0.000000000000000
-34.476493835449219 -38.005310058593750 0.000000000000000
-36.518772125244141 -39.698440551757812 0.000000000000000
-35.031185150146484 -21.784353256225586 0.000000000000000
-39.156883239746094 -36.167774200439453 0.000000000000000
-41.506855010986328 -39.778068542480469 0.000000000000000
-29.551174163818359 -36.854263305664062 0.000000000000000
-8.344353675842285 -26.144102096557617 0.000000000000000
-40.071971893310547 -27.231380462646484 0.000000000000000
29.233226776123047 -16.751838684082031 0.000000000000000
-33.861988067626953 -41.950450897216797 0.000000000000000
-43.874351501464844 -37.332107543945312 0.000000000000000
-42.153186798095703 -33.293472290039062 0.000000000000000
-44.506072998046875 -40.513477325439453 0.000000000000000
-42.548156738281250 -43.221405029296875 0.000000000000000
-44.600360870361328 -43.129337310791016 0.000000000000000
-42.490634918212891 -44.796073913574219 0.000000000000000
-45.439060211181641 -37.947006225585938 0.000000000000000
-8.165225028991699 -18.754314422607422 0.000000000000000
-2.794691085815430 -27.331245422363281 0.000000000000000
-45.186573028564453 -45.293380737304688 0.000000000000000
34.757400512695312 13.875002861022949 0.000000000000000
26.457784652709961 20.327487945556641 0.000000000000000
33.032970428466797 24.227622985839844 0.000000000000000
27.214767456054688 29.931257247924805 0.000000000000000
17.570522308349609 27.380798339843750 0.000000000000000
32.312057495117188 31.150276184082031 0.000000000000000
21.303913116455078 31.710128784179688 0.000000000000000
12.920759201049805 30.956653594970703 0.000000000000000
-9.577872276306152 -36.424400329589844 0.000000000000000
-17.683748245239258 -39.145488739013672 0.000000000000000
-39.559009552001953 -44.716094970703125 0.000000000000000
12.299832344055176 -42.257415771484375 0.000000000000000
17.414749145507812 -26.485158920288086 0.000000000000000
-40.301502227783203 -47.998706817626953 0.000000000000000
-29.618200302124023 -46.454269409179688 0.000000000000000
10.713117599487305 23.648387908935547 0.000000000000000
5.847901344299316 29.901084899902344 0.000000000000000
7.301736831665039 36.993309020996094 0.000000000000000
1.402201652526855 34.387134552001953 0.000000000000000
-2.618121147155762 26.191623687744141 0.000000000000000
-6.898267745971680 30.640213012695312 0.000000000000000
-9.058717727661133 23.007434844970703 0.000000000000000
-16.528745651245117 26.743940353393555 0.000000000000000
-14.412790298461914 16.996713638305664 0.000000000000000
-21.804157257080078 22.945140838623047 0.000000000000000
-25.404558181762695 19.106735229492188 0.000000000000000
-29.397720336914062 20.169178009033203 0.000000000000000
-30.618335723876953 16.083751678466797 0.000000000000000
-26.288211822509766 29.760370254516602 0.000000000000000
-32.675266265869141 28.041765213012695 0.000000000000000
-25.431083679199219 9.462041854858398 0.000000000000000
-29.657604217529297 10.128107070922852 0.000000000000000
-35.305767059326172 13.899570465087891 0.000000000000000
-2.845918178558350 16.399044036865234 0.000000000000000
-35.632438659667969 4.989673614501953 0.000000000000000
-31.745115280151367 2.682566642761230 0.000000000000000
-37.170272827148438 1.329477787017822 0.000000000000000
-35.060363769531250 -3.947498321533203 0.000000000000000
-39.736591339111328 -7.043146610260010 0.000000000000000
-37.037052154541016 -8.994086265563965 0.000000000000000
-40.288501739501953 -10.175584793090820 0.000000000000000
-37.562484741210938 -14.264623641967773 0.000000000000000
-40.030212402343750 -14.765575408935547 0.000000000000000
-43.171993255615234 8.424367904663086 0.000000000000000
-15.888976097106934 34.378776550292969 0.000000000000000
-45.705089569091797 -7.980728149414062 0.000000000000000
-40.485664367675781 -31.999496459960938 0.000000000000000
-41.809455871582031 -28.863630294799805 0.000000000000000
-41.711486816406250 -24.731605529785156 0.000000000000000
-46.482566833496094 -43.776584625244141 0.000000000000000
-47.216373443603516 -45.951595306396484 0.000000000000000
-43.399143218994141 37.330406188964844 0.000000000000000
-23.786064147949219 44.743919372558594 0.000000000000000
-24.322887420654297 35.469848632812500 0.000000000000000
-12.408756256103516 43.485168457031250 0.000000000000000
-46.829986572265625 -41.490230560302734 0.000000000000000
-13.652331352233887 -42.595756530761719 0.000000000000000
29.117317199707031 36.693714141845703 0.000000000000000
-29.301521301269531 -18.397047042846680 0.000000000000000
-44.073860168457031 30.378273010253906 0.000000000000000
1.935380935668945 6.612477779388428 0.000000000000000
5.344188690185547 44.071304321289062 0.000000000000000
-36.619709014892578 19.050628662109375 0.000000000000000
-34.589309692382812 -46.317050933837891 0.000000000000000
-42.446468353271484 -47.837089538574219 0.000000000000000
-46.546730041503906 -49.164085388183594 0.000000000000000
43.479049682617188 15.798767089843750 0.000000000000000
-45.383316040039062 -17.694568634033203 0.000000000000000
-42.552860260009766 -19.468372344970703 0.000000000000000
-14.212085723876953 4.245697975158691 0.000000000000000
-13.736340522766113 11.610461235046387 0.000000000000000
45.233875274658203 29.144372940063477 0.000000000000000
-30.005445480346680 -3.464441299438477 0.000000000000000
-27.512109756469727 2.118460655212402 0.000000000000000
-22.964443206787109 -31.743068695068359 0.000000000000000
-24.834280014038086 -38.921993255615234 0.000000000000000
-39.557422637939453 -23.585008621215820 0.000000000000000
-48.706497192382812 -37.164070129394531 0.000000000000000
12.386987686157227 40.285034179687500 0.000000000000000
-19.924673080444336 -42.138488769531250 0.000000000000000
-35.381580352783203 33.448818206787109 0.000000000000000
40.051895141601562 -39.974849700927734 0.000000000000000
-36.815982818603516 -44.899539947509766 0.000000000000000
35.649574279785156 44.487449645996094 0.000000000000000
36.144531250000000 39.279060363769531 0.000000000000000
26.470497131347656 42.764366149902344 0.000000000000000
-48.941287994384766 -45.747173309326172 0.000000000000000
-48.195011138916016 -42.489345550537109 0.000000000000000
4.376429080963135 19.907367706298828 0.000000000000000
-48.673686981201172 -38.771938323974609 0.000000000000000
-48.233623504638672 -32.924530029296875 0.000000000000000
-45.398643493652344 -31.325084686279297 0.000000000000000
-46.872196197509766 -27.439870834350586 0.000000000000000
-46.207725524902344 -20.060134887695312 0.000000000000000
-47.375503540039062 -47.307159423828125 0.000000000000000
15.214881896972656 17.657613754272461 0.000000000000000
15.115484237670898 -8.720149993896484 0.000000000000000
12.794803619384766 -22.074285507202148 0.000000000000000
-46.268482208251953 -35.516078948974609 0.000000000000000
7.585801601409912 -28.013992309570312 0.000000000000000
-31.551902770996094 -39.933631896972656 0.000000000000000
-45.745388031005859 -47.456161499023438 0.000000000000000
23.639766693115234 -5.700612068176270 0.000000000000000
12.865144729614258 43.734607696533203 0.000000000000000
-27.167926788330078 -32.235439300537109 0.000000000000000
-6.449755668640137 37.893379211425781 0.000000000000000
-38.226474761962891 -43.083618164062500 0.000000000000000
40.827949523925781 39.459877014160156 0.000000000000000
28.506916046142578 -27.850975036621094 0.000000000000000
-43.197135925292969 -2.216712951660156 0.000000000000000
-12.506294250488281 -17.564750671386719 0.000000000000000
44.244319915771484 43.156940460205078 0.000000000000000
-49.135799407958984 -48.167301177978516 0.000000000000000
-4.478682994842529 -34.266700744628906 0.000000000000000
-9.566558837890625 14.543002128601074 0.000000000000000
-20.320146560668945 4.798269271850586 0.000000000000000
40.650272369384766 35.224693298339844 0.000000000000000
-46.717979431152344 8.149567604064941 0.000000000000000
22.446508407592773 40.439132690429688 0.000000000000000
-38.538291931152344 -17.237014770507812 0.000000000000000
21.232166290283203 -15.220207214355469 0.000000000000000
38.421539306640625 26.768348693847656 0.000000000000000
-5.642520904541016 -13.286245346069336 0.000000000000000
-39.014968872070312 15.370696067810059 0.000000000000000
2.032334327697754 40.592414855957031 0.000000000000000
-41.868862152099609 43.511383056640625 0.000000000000000
-26.970384597778320 -40.860839843750000 0.000000000000000
-45.003200531005859 -26.215919494628906 0.000000000000000
-44.297180175781250 -46.456653594970703 0.000000000000000
-43.690074920654297 -31.709415435791016 0.000000000000000
-20.035264968872070 14.889101028442383 0.000000000000000
3.561947584152222 -34.466674804687500 0.000000000000000
-40.378780364990234 22.364196777343750 0.000000000000000
-42.768375396728516 4.528539180755615 0.000000000000000
-31.567907333374023 -13.750043869018555 0.000000000000000
-46.753475189208984 -40.245227813720703 0.000000000000000
-45.207759857177734 -28.518226623535156 0.000000000000000
-0.776721477508545 -18.208896636962891 0.000000000000000
-44.412742614746094 -22.952281951904297 0.000000000000000
-44.112575531005859 13.224061965942383 0.000000000000000
-19.301307678222656 31.951589584350586 0.000000000000000
-30.212356567382812 -6.803343772888184 0.000000000000000
47.608764648437500 45.575462341308594 0.000000000000000
-30.289798736572266 35.987247467041016 0.000000000000000
-47.489067077636719 -4.442625045776367 0.000000000000000
-36.531696319580078 30.104372024536133 0.000000000000000
-49.305007934570312 -49.069324493408203 0.000000000000000
-45.481410980224609 -33.771732330322266 0.000000000000000
1.561944484710693 13.857822418212891 0.000000000000000
-47.329578399658203 -9.802858352661133 0.000000000000000
-32.063362121582031 -44.210388183593750 0.000000000000000
7.256140708923340 41.413650512695312 0.000000000000000
-3.876441955566406 10.190013885498047 0.000000000000000
6.586306571960449 -23.940391540527344 0.000000000000000
-45.204349517822266 -11.604022026062012 0.000000000000000
37.510585784912109 21.732860565185547 0.000000000000000
-33.082202911376953 -15.410443305969238 0.000000000000000
-4.309793472290039 -38.118255615234375 0.000000000000000

POLYGONS 538 2152
3 82 202 230
3 195 86 231
3 72 220 224
3 83 194 195
3 226 84 253
3 217 180 218
3 76 23 91
3 86 195 239
3 76 93 211
3 128 136 191
3 200 194 232
3 35 36 158
3 28 71 156
3 140 209 273
3 83 195 231
3 93 145 211
3 220 130 249
3 202 82 229
3 124 128 191
3 220 154 224
3 91 89 133
3 89 226 253
3 76 91 92
3 212 187 213
3 155 77 158
3 182 180 217
3 194 83 232
3 73 200 232
3 77 35 158
3 193 213 221
3 27 28 156
3 156 71 276
3 110 115 203
3 29 30 201
3 115 127 203
3 133 89 253
3 34 77 208
3 219 220 249
3 32 33 159
3 221 213 264
3 23 24 91
3 187 212 299
3 112 160 240
3 140 158 209
3 220 72 271
3 80 189 198
3 111 217 218
3 33 34 208
3 84 27 156
3 24 89 91
3 157 242 265
3 196 87 225
3 168 215 275
3 22 76 211
3 189 80 199
3 135 129 137
3 215 168 259
3 159 33 208
3 135 137 141
3 212 69 299
3 122 124 191
3 253 157 265
3 128 126 129
3 66 181 254
3 114 113 219
3 213 187 264
3 128 129 135
3 139 140 144
3 8 68 199
3 29 201 302
3 75 63 204
3 77 155 227
3 6 80 197
3 84 157 253
3 7 8 199
3 194 144 195
3 26 27 84
3 137 138 139
3 126 134 251
3 130 220 271
3 96 112 240
3 124 126 128
3 112 98 205
3 150 202 229
3 197 80 198
3 137 139 200
3 121 116 122
3 158 36 209
3 108 110 203
3 154 201 224
3 76 92 93
3 141 222 243
3 208 77 227
3 24 25 89
3 84 156 157
3 134 208 227
3 80 7 199
3 139 144 194
3 223 74 263
3 115 114 116
3 121 122 132
3 115 116 121
3 245 130 271
3 132 193 221
3 63 64 204
3 143 244 258
3 132 122 191
3 112 205 293
3 196 225 290
3 242 157 244
3 110 114 115
3 222 70 243
3 124 125 126
3 22 23 76
3 107 106 108
3 134 227 251
3 160 112 233
3 216 78 266
3 3 26 226
3 294 190 299
3 132 191 192
3 268 75 277
3 137 200 280
3 181 66 278
3 107 108 119
3 105 111 214
3 147 148 150
3 230 202 263
3 105 106 107
3 87 5 197
3 121 132 221
3 105 103 106
3 102 105 214
3 5 6 197
3 148 151 202
3 72 32 159
3 185 186 187
3 85 252 256
3 150 148 202
3 122 123 124
3 183 184 185
3 119 108 203
3 137 129 138
3 212 213 238
3 87 197 288
3 86 239 257
3 102 103 105
3 20 78 216
3 145 146 147
3 181 182 183
3 141 137 280
3 139 138 140
3 207 268 277
3 25 3 226
3 147 146 148
3 183 185 190
3 239 90 257
3 179 180 181
3 191 136 274
3 145 95 146
3 113 120 219
3 108 109 110
3 100 101 102
3 201 30 224
3 190 185 299
3 93 94 95
3 102 101 103
3 177 176 179
3 64 196 204
3 110 113 114
3 120 154 219
3 225 87 288
3 189 199 250
3 93 95 145
3 4 5 87
3 165 189 250
3 211 145 300
3 114 219 249
3 151 223 263
3 28 29 71
3 98 99 100
3 6 7 80
3 148 149 151
3 96 98 112
3 171 170 172
3 258 244 276
3 172 177 207
3 62 63 75
3 172 175 176
3 93 92 94
3 58 190 294
3 64 65 196
3 179 176 180
3 126 125 134
3 172 176 177
3 213 193 283
3 120 153 154
3 9 10 206
3 185 184 186
3 183 182 184
3 100 99 101
3 262 61 284
3 100 102 104
3 122 116 123
3 8 9 68
3 177 179 188
3 181 180 182
3 96 97 98
3 104 102 214
3 152 162 223
3 222 141 234
3 31 32 72
3 151 152 223
3 195 144 246
3 171 172 207
3 92 91 133
3 20 21 78
3 34 35 77
3 59 60 66
3 37 38 79
3 68 9 206
3 152 161 162
3 266 78 300
3 108 106 109
3 98 100 205
3 128 135 136
3 95 94 96
3 169 170 171
3 98 97 99
3 148 146 149
3 181 183 254
3 39 40 90
3 115 121 127
3 169 168 170
3 124 123 125
3 188 179 278
3 172 170 175
3 95 96 240
3 18 19 85
3 151 149 152
3 36 37 209
3 198 189 285
3 144 140 273
3 136 135 243
3 104 214 215
3 174 171 207
3 38 39 210
3 107 119 217
3 160 149 240
3 188 262 284
3 149 146 240
3 206 10 248
3 105 107 111
3 255 103 267
3 167 168 169
3 132 192 193
3 74 223 248
3 162 161 163
3 111 107 217
3 127 121 221
3 190 58 289
3 157 156 244
3 79 38 210
3 110 109 113
3 71 29 302
3 37 79 209
3 30 31 224
3 215 214 260
3 62 75 284
3 21 22 211
3 203 127 301
3 219 154 220
3 199 68 250
3 167 166 168
3 150 229 261
3 56 57 69
3 39 90 210
3 163 164 165
3 165 164 166
3 154 153 201
3 152 160 161
3 96 94 97
3 165 167 189
3 139 194 200
3 173 171 174
3 55 56 212
3 262 188 278
3 165 166 167
3 100 104 205
3 140 155 158
3 163 161 164
3 176 175 218
3 173 198 285
3 133 253 265
3 19 20 216
3 123 116 249
3 169 171 173
3 87 196 270
3 129 126 251
3 59 66 289
3 146 95 240
3 89 25 226
3 207 177 268
3 214 111 260
3 166 164 178
3 18 85 256
3 101 99 118
3 65 1 270
3 11 12 74
3 138 129 251
3 152 149 160
3 208 134 295
3 252 88 256
3 15 16 88
3 215 260 275
3 239 195 246
3 161 160 233
3 13 14 82
3 60 61 262
3 56 69 212
3 48 49 222
3 12 13 230
3 164 161 233
3 242 244 298
3 135 141 243
3 14 15 228
3 173 174 225
3 180 176 218
3 26 84 226
3 147 266 300
3 168 166 259
3 111 218 260
3 106 103 255
3 54 55 238
3 42 43 86
3 44 45 83
3 1 4 270
3 46 47 73
3 49 50 70
3 51 52 81
3 53 54 67
3 75 268 284
3 200 73 280
3 85 216 261
3 163 165 250
3 75 204 277
3 155 138 251
3 136 243 292
3 10 11 248
3 142 255 267
3 55 212 238
3 94 92 247
3 282 118 298
3 97 94 247
3 178 164 233
3 116 114 249
3 130 123 249
3 274 236 281
3 47 48 234
3 202 151 263
3 99 97 241
3 43 44 231
3 45 46 232
3 210 90 239
3 50 51 235
3 52 53 237
3 69 294 299
3 0 17 287
3 16 0 287
3 92 133 247
3 170 168 275
3 57 58 294
3 229 252 261
3 192 191 274
3 118 241 242
3 234 141 280
3 17 18 256
3 118 99 241
3 11 74 248
3 113 117 120
3 74 12 230
3 241 97 247
3 198 173 288
3 236 136 292
3 78 21 211
3 183 190 254
3 15 88 228
3 279 184 286
3 13 82 230
3 140 138 155
3 82 14 228
3 101 118 267
3 104 215 297
3 118 242 298
3 66 254 289
3 189 167 285
3 227 155 251
3 41 42 257
3 120 131 153
3 252 85 261
3 48 222 234
3 82 228 229
3 40 2 291
3 134 125 245
3 2 41 291
3 125 123 130
3 185 187 299
3 169 173 285
3 79 210 246
3 131 117 142
3 44 83 231
3 46 73 232
3 85 19 216
3 246 144 273
3 78 211 300
3 113 109 117
3 187 186 264
3 51 81 235
3 53 67 237
3 49 70 222
3 147 150 266
3 178 293 297
3 215 259 297
3 210 239 246
3 131 142 143
3 269 206 296
3 31 72 224
3 235 81 236
3 4 87 270
3 42 86 257
3 67 54 238
3 218 175 260
3 228 88 252
3 293 205 297
3 120 117 131
3 179 181 278
3 186 184 279
3 66 60 262
3 73 47 234
3 166 178 259
3 109 106 255
3 261 216 266
3 86 43 231
3 83 45 232
3 119 203 279
3 162 269 296
3 70 50 235
3 81 52 237
3 260 175 275
3 79 246 273
3 192 274 281
3 73 234 280
3 245 159 295
3 127 221 264
3 229 228 252
3 125 130 245
3 174 277 290
3 277 204 290
3 193 192 272
3 90 40 291
3 103 101 267
3 68 206 269
3 241 247 265
3 119 279 286
3 258 71 302
3 250 68 269
3 142 117 255
3 162 163 269
3 204 196 290
3 182 217 286
3 196 65 270
3 136 236 274
3 272 67 283
3 177 188 268
3 61 62 284
3 223 162 296
3 237 67 272
3 217 119 286
3 58 59 289
3 209 79 273
3 145 147 300
3 174 207 277
3 197 198 288
3 242 241 265
3 159 245 271
3 74 230 263
3 153 131 258
3 244 143 298
3 117 109 255
3 72 159 271
3 71 258 276
3 163 250 269
3 243 70 292
3 206 248 296
3 131 143 258
3 173 225 288
3 175 170 275
3 167 169 285
3 254 190 289
3 267 118 282
3 247 133 265
3 238 213 283
3 205 104 297
3 236 81 281
3 184 182 286
3 143 142 282
3 70 235 292
3 193 272 283
3 88 16 287
3 225 174 290
3 153 258 302
3 66 262 278
3 244 156 276
3 127 264 301
3 235 236 292
3 178 233 293
3 142 267 282
3 268 188 284
3 81 237 281
3 69 57 294
3 159 208 295
3 150 261 266
3 67 238 283
3 259 178 297
3 134 245 295
3 17 256 287
3 233 112 293
3 264 186 301
3 201 153 302
3 41 257 291
3 237 272 281
3 248 223 296
3 256 88 287
3 257 90 291
3 272 192 281
3 279 203 301
3 186 279 301
3 143 282 298

CELL_DATA 538
SCALARS pressure float 1
LOOKUP_TABLE default
20.0
-20.0
-20.0
-20.0
20.0
-20.0
20.0
-20.0
20.0
-20.0
-20.0
-20.0
19.99707794189453
-20.0
-20.0
20.0
-20.0
20.0
-20.0
-20.0
20.0
20.0
20.0
-20.0
-20.0
-20.0
-20.0
-20.0
-20.0
-20.0
20.0
20.0
-20.0
-19.99931526184082
-20.0
20.0
-20.0
-20.0
-20.0
-20.0
20.0
-20.0
19.999998092651367
-20.0
-20.0
-20.0
-20.0
-20.0
20.0
20.0
20.0
-20.0
-20.0
20.0
-20.0
-20.0
-20.0
-20.0
-20.0
-20.0
-20.0
20.0
-20.0
-20.0
-20.0
-20.0
-20.0
-20.0
-19.999814987182617
-19.99931526184082
-20.0
-20.0
-20.0
20.0
-20.0
-20.0
20.0
-20.0
-20.0
-20.0
20.0
-20.0
19.999998092651367
20.0
-20.0
-20.0
-20.0
-20.0
-20.0
-20.0
20.0
-20.0
-20.0
20.0
20.0
-20.0
-20.0
-20.0
20.0
-20.0
-20.0
-20.0
-20.0
-20.0
-20.0
-19.851062774658203
-20.0
19.999998092651367
-20.0
20.0
-20.0
-20.0
-20.0
20.0
-20.0
-20.0
20.0
20.0
20.0
-20.0
-20.0
-20.0
-20.0
-20.0
-20.0
-20.0
20.0
20.0
-20.0
-20.0
-20.0
-20.0
-20.0
-20.0
20.0
-20.0
-20.0
20.0
20.0
-20.0
-20.0
-20.0
-20.0
-20.0
-20.0
-20.0
-20.0
20.0
20.0
-20.0
-20.0
-20.0
-20.0
20.0
20.0
-20.0
-20.0
-20.0
-20.0
20.0
-20.0
-20.0
3.0745859146118164
-20.0
-20.0
20.0
-20.0
-20.0
-20.0
-20.0
-20.0
-20.0
-20.0
20.0
-20.0
-19.99995994567871
20.0
-20.0
20.0
19.99707794189453
19.999996185302734
-20.0
20.0
20.0
-20.0
-19.994848251342773
-20.0
-20.0
-20.0
20.0
-20.0
-20.0
-20.0
-20.0
-20.0
-20.0
-20.0
17.709491729736328
-20.0
-20.0
3.0745859146118164
-20.0
3.0745859146118164
-20.0
-19.999814987182617
-20.0
-20.0
20.0
-19.999998092651367
20.0
-20.0
-20.0
20.0
-20.0
-20.0
20.0
20.0
-20.0
-20.0
-20.0
-19.315309524536133
20.0
20.0
-20.0
19.999996185302734
-20.0
20.0
-20.0
19.999996185302734
20.0
-20.0
-20.0
-20.0
-20.0
-20.0
-20.0
-20.0
20.0
20.0
20.0
-20.0
-20.0
-20.0
-20.0
-19.999998092651367
-20.0
-20.0
-20.0
20.0
-20.0
20.0
19.999088287353516
-20.0
-20.0
-20.0
-20.0
20.0
19.999982833862305
-20.0
-20.0
-20.0
20.0
-20.0
-20.0
-19.809795379638672
-20.0
-20.0
-20.0
-20.0
20.0
-20.0
-20.0
-20.0
-20.0
20.0
-20.0
-20.0
17.71653175354004
-19.99995994567871
-20.0
20.0
20.0
-19.99995994567871
-20.0
-20.0
-20.0
-20.0
-19.99995994567871
3.0745859146118164
-20.0
17.71653175354004
-20.0
-20.0
20.0
20.0
-20.0
-20.0
-20.0
-20.0
-20.0
20.0
20.0
-20.0
-20.0
-20.0
20.0
-19.984695434570312
-20.0
20.0
-20.0
20.0
-20.0
20.0
20.0
-20.0
-20.0
19.99966812133789
20.0
-20.0
-20.0
-20.0
20.0
-19.788318634033203
20.0
-20.0
20.0
-20.0
-20.0
20.0
20.0
-20.0
-20.0
-20.0
-20.0
-20.0
-20.0
-20.0
-20.0
-20.0
-20.0
-20.0
-20.0
-20.0
20.0
17.71653175354004
-20.0
-20.0
-20.0
19.999998092651367
-19.999996185302734
-20.0
20.0
-13.01641845703125
20.0
-19.865516662597656
-20.0
-20.0
-20.0
-20.0
20.0
19.99999237060547
-20.0
-20.0
-20.0
-20.0
-20.0
-20.0
20.0
20.0
20.0
-20.0
-20.0
20.0
-20.0
19.99887466430664
-20.0
20.0
19.99887466430664
20.0
-20.0
20.0
20.0
-20.0
-20.0
20.0
-20.0
20.0
-20.0
20.0
-20.0
20.0
-19.984695434570312
-19.999998092651367
19.99887466430664
-20.0
-20.0
-20.0
-20.0
-20.0
20.0
-20.0
20.0
-20.0
-20.0
-20.0
-20.0
-20.0
-20.0
-20.0
-19.999998092651367
-20.0
-20.0
20.0
-20.0
20.0
-20.0
-20.0
-20.0
-20.0
-20.0
20.0
-19.865516662597656
-20.0
-20.0
-19.999998092651367
19.324844360351562
-20.0
-20.0
-20.0
-20.0
-20.0
-20.0
20.0
18.314697265625
-20.0
-20.0
-20.0
-20.0
-20.0
-20.0
-20.0
20.0
-20.0
-20.0
-20.0
19.999982833862305
-20.0
-20.0
-20.0
-20.0
-20.0
-20.0
-20.0
-20.0
20.0
-20.0
-20.0
-20.0
-20.0
-20.0
-20.0
-19.315309524536133
20.0
-20.0
-19.994848251342773
-19.999900817871094
-19.999996185302734
19.999982833862305
-20.0
-20.0
-20.0
-20.0
-20.0
-20.0
-20.0
20.0
-20.0
-20.0
-20.0
-20.0
20.0
-20.0
-20.0
20.0
-20.0
20.0
-20.0
19.999988555908203
-20.0
-20.0
-19.809795379638672
17.71653175354004
-20.0
19.999088287353516
-19.999998092651367
-20.0
-20.0
-20.0
-20.0
-19.99949836730957
20.0
-20.0
19.18332290649414
-20.0
-20.0
-19.851062774658203
-20.0
-20.0
20.0
-20.0
-20.0
-20.0
19.999988555908203
-20.0
-20.0
-19.865516662597656
-19.999996185302734
-20.0
-20.0
-20.0
-20.0
20.0
-20.0
-20.0
-20.0
20.0
19.993680953979492
-20.0
-20.0
-20.0
-20.0
20.0
20.0
-20.0
-20.0
-20.0
-20.0
-19.851062774658203
