# vtk DataFile Version 2.0
FOR TEST
ASCII
DATASET POLYDATA
POINTS 16861 float
0.996568024158478 -0.001811000518501 0.000000000000000
0.992640018463135 -0.002523999661207 0.000000000000000
0.988680005073547 -0.003078999929130 0.000000000000000
0.984727025032043 -0.003682999871671 0.000000000000000
0.980781018733978 -0.004325999878347 0.000000000000000
0.976833999156952 -0.004970000125468 0.000000000000000
0.972887992858887 -0.005617998540401 0.000000000000000
0.968941986560822 -0.006264999974519 0.000000000000000
0.964994013309479 -0.006899000145495 0.000000000000000
0.961040973663330 -0.007501999847591 0.000000000000000
0.957087993621826 -0.008104000240564 0.000000000000000
0.953135013580322 -0.008706999942660 0.000000000000000
0.949181973934174 -0.009309999644756 0.000000000000000
0.945228993892670 -0.009912000037730 0.000000000000000
0.941276013851166 -0.010515000671148 0.000000000000000
0.937322974205017 -0.011115999892354 0.000000000000000
0.933369994163513 -0.011718000285327 0.000000000000000
0.929417014122009 -0.012319999746978 0.000000000000000
0.925463020801544 -0.012920999899507 0.000000000000000
0.921509981155396 -0.013523000292480 0.000000000000000
0.917557001113892 -0.014124000445008 0.000000000000000
0.913604021072388 -0.014723000116646 0.000000000000000
0.909646987915039 -0.015301999635994 0.000000000000000
0.905691027641296 -0.015881000086665 0.000000000000000
0.901733994483948 -0.016460999846458 0.000000000000000
0.897777974605560 -0.017039999365807 0.000000000000000
0.893821001052856 -0.017619000747800 0.000000000000000
0.889864981174469 -0.018198000267148 0.000000000000000
0.885908007621765 -0.018776999786496 0.000000000000000
0.881950020790100 -0.019347000867128 0.000000000000000
0.877991974353790 -0.019912000745535 0.000000000000000
0.874032974243164 -0.020477000623941 0.000000000000000
0.870073974132538 -0.021041000261903 0.000000000000000
0.866115987300873 -0.021606000140309 0.000000000000000
0.862156987190247 -0.022169999778271 0.000000000000000
0.858199000358582 -0.022734999656677 0.000000000000000
0.854240000247955 -0.023299999535084 0.000000000000000
0.850278973579407 -0.023850999772549 0.000000000000000
0.846318006515503 -0.024398000910878 0.000000000000000
0.842356979846954 -0.024943999946117 0.000000000000000
0.838396012783051 -0.025490999221802 0.000000000000000
0.834434986114502 -0.026037000119686 0.000000000000000
0.830474019050598 -0.026582999154925 0.000000000000000
0.826511979103088 -0.027130000293255 0.000000000000000
0.822551012039185 -0.027675999328494 0.000000000000000
0.818588972091675 -0.028216000646353 0.000000000000000
0.814625978469849 -0.028744999319315 0.000000000000000
0.810661971569061 -0.029275000095367 0.000000000000000
0.806698977947235 -0.029804002493620 0.000000000000000
0.802734971046448 -0.030333999544382 0.000000000000000
0.798771977424622 -0.030863000079989 0.000000000000000
0.794807970523834 -0.031392000615597 0.000000000000000
0.790844976902008 -0.031922001391649 0.000000000000000
0.786881029605865 -0.032451000064611 0.000000000000000
0.782914996147156 -0.032958000898361 0.000000000000000
0.778948009014130 -0.033459998667240 0.000000000000000
0.774981021881104 -0.033961001783609 0.000000000000000
0.771013975143433 -0.034462001174688 0.000000000000000
0.767046988010406 -0.034963998943567 0.000000000000000
0.763078987598419 -0.035464998334646 0.000000000000000
0.759112000465393 -0.035966001451015 0.000000000000000
0.755145013332367 -0.036467999219894 0.000000000000000
0.751178026199341 -0.036968998610973 0.000000000000000
0.747210979461670 -0.037471000105143 0.000000000000000
0.743243992328644 -0.037971999496222 0.000000000000000
0.739277005195618 -0.038472998887300 0.000000000000000
0.735310018062592 -0.038975000381470 0.000000000000000
0.731342017650604 -0.039475999772549 0.000000000000000
0.727374970912933 -0.039976999163628 0.000000000000000
0.723407983779907 -0.040479000657797 0.000000000000000
0.719440996646881 -0.040980000048876 0.000000000000000
0.715474009513855 -0.041480999439955 0.000000000000000
0.711503028869629 -0.041949000209570 0.000000000000000
0.707530975341797 -0.042410999536514 0.000000000000000
0.703558981418610 -0.042874000966549 0.000000000000000
0.699586987495422 -0.043336000293493 0.000000000000000
0.695614993572235 -0.043797999620438 0.000000000000000
0.691642999649048 -0.044259998947382 0.000000000000000
0.687672019004822 -0.044721998274326 0.000000000000000
0.683700025081635 -0.045184999704361 0.000000000000000
0.679727971553802 -0.045646999031305 0.000000000000000
0.675755977630615 -0.046108998358250 0.000000000000000
0.671783983707428 -0.046571001410484 0.000000000000000
0.667811989784241 -0.047033000737429 0.000000000000000
0.663839995861053 -0.047495998442173 0.000000000000000
0.659868001937866 -0.047958001494408 0.000000000000000
0.655897021293640 -0.048420000821352 0.000000000000000
0.651925027370453 -0.048882000148296 0.000000000000000
0.647952973842621 -0.049343999475241 0.000000000000000
0.643980979919434 -0.049807000905275 0.000000000000000
0.640007972717285 -0.050259001553059 0.000000000000000
0.636030972003937 -0.050675000995398 0.000000000000000
0.632053971290588 -0.051091000437737 0.000000000000000
0.628076970577240 -0.051507998257875 0.000000000000000
0.624100029468536 -0.051924001425505 0.000000000000000
0.620123028755188 -0.052340000867844 0.000000000000000
0.616146028041840 -0.052756998687983 0.000000000000000
0.612169027328491 -0.053173001855612 0.000000000000000
0.608192026615143 -0.053589001297951 0.000000000000000
0.604215025901794 -0.054005000740290 0.000000000000000
0.600238978862762 -0.054421998560429 0.000000000000000
0.596261978149414 -0.054838001728058 0.000000000000000
0.592284977436066 -0.055254001170397 0.000000000000000
0.588307976722717 -0.055670000612736 0.000000000000000
0.584330976009369 -0.056086998432875 0.000000000000000
0.580353975296021 -0.056503001600504 0.000000000000000
0.576376974582672 -0.056919001042843 0.000000000000000
0.572399973869324 -0.057335998862982 0.000000000000000
0.568422973155975 -0.057751998305321 0.000000000000000
0.564445018768311 -0.058159999549389 0.000000000000000
0.560463011264801 -0.058520000427961 0.000000000000000
0.556479990482330 -0.058880001306534 0.000000000000000
0.552497982978821 -0.059241000562906 0.000000000000000
0.548515975475311 -0.059601001441479 0.000000000000000
0.544533014297485 -0.059962000697851 0.000000000000000
0.540551006793976 -0.060322001576424 0.000000000000000
0.536567986011505 -0.060681998729706 0.000000000000000
0.532585978507996 -0.061043001711369 0.000000000000000
0.528603971004486 -0.061402998864651 0.000000000000000
0.524621009826660 -0.061764001846313 0.000000000000000
0.520639002323151 -0.062123998999596 0.000000000000000
0.516655981540680 -0.062483999878168 0.000000000000000
0.512673974037170 -0.062844999134541 0.000000000000000
0.508692026138306 -0.063204996287823 0.000000000000000
0.504709005355835 -0.063565000891685 0.000000000000000
0.500726997852325 -0.063925996422768 0.000000000000000
0.496744006872177 -0.064286001026630 0.000000000000000
0.492761999368668 -0.064646996557713 0.000000000000000
0.488779991865158 -0.065007001161575 0.000000000000000
0.484791994094849 -0.065304003655910 0.000000000000000
0.480803996324539 -0.065595000982285 0.000000000000000
0.476815998554230 -0.065885998308659 0.000000000000000
0.472828000783920 -0.066177003085613 0.000000000000000
0.468840003013611 -0.066467002034187 0.000000000000000
0.464852005243301 -0.066757999360561 0.000000000000000
0.460862994194031 -0.067048996686935 0.000000000000000
0.456874996423721 -0.067340001463890 0.000000000000000
0.452886998653412 -0.067630998790264 0.000000000000000
0.448899000883102 -0.067920997738838 0.000000000000000
0.444911003112793 -0.068212002515793 0.000000000000000
0.440923005342484 -0.068502999842167 0.000000000000000
0.436935007572174 -0.068793997168541 0.000000000000000
0.432947009801865 -0.069085001945496 0.000000000000000
0.428959012031555 -0.069375000894070 0.000000000000000
0.424971014261246 -0.069665998220444 0.000000000000000
0.420982986688614 -0.069957002997398 0.000000000000000
0.416994005441666 -0.070248000323772 0.000000000000000
0.413006007671356 -0.070538997650146 0.000000000000000
0.409013986587524 -0.070765003561974 0.000000000000000
0.405021011829376 -0.070967003703117 0.000000000000000
0.401026993989944 -0.071167998015881 0.000000000000000
0.397033989429474 -0.071368999779224 0.000000000000000
0.393040001392365 -0.071570001542568 0.000000000000000
0.389046013355255 -0.071771003305912 0.000000000000000
0.385053008794785 -0.071971997618675 0.000000000000000
0.381058990955353 -0.072172999382019 0.000000000000000
0.377065002918243 -0.072374999523163 0.000000000000000
0.373071998357773 -0.072576001286507 0.000000000000000
0.369078010320663 -0.072777003049850 0.000000000000000
0.365085005760193 -0.072977997362614 0.000000000000000
0.361090987920761 -0.073178999125957 0.000000000000000
0.357096999883652 -0.073380000889301 0.000000000000000
0.353103995323181 -0.073582001030445 0.000000000000000
0.349110007286072 -0.073783002793789 0.000000000000000
0.345117002725601 -0.073983997106552 0.000000000000000
0.341123014688492 -0.074184998869896 0.000000000000000
0.337128996849060 -0.074386000633240 0.000000000000000
0.333131998777390 -0.074493996798992 0.000000000000000
0.329135000705719 -0.074578002095222 0.000000000000000
0.325136989355087 -0.074661999940872 0.000000000000000
0.321139007806778 -0.074745997786522 0.000000000000000
0.317140996456146 -0.074828997254372 0.000000000000000
0.313142985105515 -0.074913002550602 0.000000000000000
0.309145987033844 -0.074997000396252 0.000000000000000
0.305148005485535 -0.075080998241901 0.000000000000000
0.301149994134903 -0.075165003538132 0.000000000000000
0.297152012586594 -0.075249001383781 0.000000000000000
0.293154001235962 -0.075332999229431 0.000000000000000
0.289157003164291 -0.075416997075081 0.000000000000000
0.285158991813660 -0.075501002371311 0.000000000000000
[...]
CELL_DATA 33007
SCALARS pressure float 1
LOOKUP_TABLE default
15.231890678405762
15.202051162719727
0.06819973140954971
0.002840000204741955
-0.011139998212456703
-0.0037799999117851257
0.02339998632669449
0.19317397475242615
0.22393064200878143
0.4095227122306824
15.168534278869629
15.202980995178223
0.11805862933397293
0.6109298467636108
0.5630911588668823
1.3401288986206055
0.8222962021827698
1.9533729553222656
0.3358084261417389
1.0324413776397705
3.197920799255371
2.5752053260803223
5.182496070861816
3.816823720932007
6.498237133026123
1.1153017282485962
15.135978698730469
4.505059242248535
3.9212629795074463
15.100542068481445
7.820441246032715
6.593328475952148
5.207226753234863
7.844519138336182
1.5053675174713135
9.090169906616211
14.927223205566406
11.326473236083984
14.9647798538208
10.284003257751465
10.252132415771484
9.06495189666748
11.352081298828125
3.3049156665802
2.6829895973205566
4.6066389083862305
12.281959533691406
13.11843490600586
2.056426525115967
13.132770538330078
14.451409339904785
13.855987548828125
13.865561485290527
13.529119491577148
14.494792938232422
14.187335014343262
13.517361640930176
14.179858207702637
15.031831741333008
12.311800956726074
15.068075180053711
14.752309799194336
14.712113380432129
9.341880798339844
10.310901641845703
14.96231460571289
13.560505867004395
3.0723836421966553
6.089944839477539
9.834000587463379
11.647194862365723
12.061070442199707
14.820618629455566
3.690960168838501
10.772007942199707
1.8205267190933228
13.897268295288086
7.776737689971924
6.664523124694824
4.908110618591309
1.1900525093078613
12.84166145324707
8.312751770019531
8.834646224975586
12.45920181274414
2.4485552310943604
13.208747863769531
5.504068851470947
4.303303241729736
7.22705602645874
13.987907409667969
14.374929428100586
11.959061622619629
11.21754264831543
10.996731758117676
10.543386459350586
14.526987075805664
14.532218933105469
15.066285133361816
8.57548713684082
8.1800537109375
12.361177444458008
13.29809284210205
13.386507987976074
14.30428409576416
8.444555282592773
13.814469337463379
13.730733871459961
8.809629440307617
6.640758991241455
9.378509521484375
2.9168906211853027
9.686264991760254
10.225360870361328
14.219324111938477
5.798364639282227
6.234681606292725
9.216512680053711
9.466318130493164
9.712390899658203
10.074377059936523
12.262145042419434
11.752124786376953
11.541271209716797
0.3452256917953491
13.311260223388672
5.774083137512207
14.891902923583984
6.065873622894287
0.8951016664505005
5.479585647583008
13.614608764648438
11.10761833190918
14.788249969482422
10.427627563476562
14.859502792358398
3.2274973392486572
15.169715881347656
13.979135513305664
14.060108184814453
6.947351455688477
7.640559196472168
7.503545761108398
3.3532776832580566
0.8757795095443726
0.7189900279045105
14.638704299926758
0.26224496960639954
14.606438636779785
2.419590711593628
1.4933555126190186
1.7992820739746094
3.9706430435180664
5.057971477508545
4.455231666564941
2.134935140609741
4.580912113189697
1.6629717350006104
4.88287878036499
12.082110404968262
1.9778542518615723
11.670775413513184
11.775068283081055
11.878390312194824
11.459288597106934
12.182523727416992
11.980729103088379
8.705509185791016
8.04648494720459
1.1900126934051514
11.512528419494629
12.652359962463379
2.73134708404541
3.0425965785980225
13.027128219604492
11.024273872375488
1.3477942943572998
10.80084228515625
2.1090497970581055
10.913043022155762
11.189298629760742
10.458452224731445
10.342392921447754
10.744391441345215
8.28818416595459
8.022199630737305
8.550676345825195
0.4095227122306824
3.3823297023773193
2.2918877601623535
8.222013473510742
7.203117370605469
7.752702713012695
7.479560375213623
2.7610361576080322
0.03533996269106865
13.473983764648438
3.6627273559570312
0.12819823622703552
6.378698825836182
6.521965980529785
5.355937480926514
5.651549339294434
5.944500923156738
12.996330261230469
4.276801109313965
12.574162483215332
12.477713584899902
12.380317687988281
12.85774040222168
12.811071395874023
12.669641494750977
4.75766134262085
4.150833606719971
3.9978771209716797
3.8446056842803955
6.3548665046691895
3.5368621349334717
5.847292900085449
2.6049182415008545
7.087600231170654
7.365708351135254
14.457151412963867
14.381153106689453
14.226540565490723
14.419255256652832
8.962857246398926
7.91207218170166
14.147897720336914
15.10209846496582
14.108238220214844
13.906572341918945
14.068347930908203
13.60340690612793
8.937746047973633
7.27253532409668
7.684738636016846
7.548165321350098
7.133516788482666
6.853088855743408
6.782508850097656
6.923493385314941
10.107221603393555
9.747106552124023
9.563860893249512
9.988142967224121
9.502299308776855
9.868099212646484
9.31624984741211
9.19105339050293
9.80771255493164
10.047800064086914
9.128116607666016
14.297569274902344
15.033842086791992
14.99941349029541
14.25855827331543
4.2004523277282715
4.429088115692139
10.193120002746582
9.528186798095703
9.589818954467773
9.954660415649414
11.856088638305664
12.162088394165039
11.434382438659668
13.355303764343262
13.48602294921875
13.266993522644043
13.177748680114746
13.442686080932617
13.399105072021484
0.284580796957016
1.56990385055542
13.782820701599121
13.741109848022461
13.657003402709961
14.74848747253418
5.405547142028809
13.69917106628418
13.571972846984863
13.824302673339844
5.257009506225586
6.282887935638428
6.426644325256348
5.627174377441406
14.929924011230469
6.13839054107666
14.894817352294922
10.658191680908203
14.856366157531738
10.884864807128906
14.140169143676758
3.4308016300201416
14.675516128540039
1.0406394004821777
14.601677894592285
3.2756497859954834
3.739833354949951
6.806321620941162
14.489312171936035
0.9678833484649658
0.6810564994812012
14.679798126220703
14.643224716186523
3.8937931060791016
4.047370433807373
1.8756320476531982
2.3420653343200684
4.123974323272705
1.2646703720092773
1.4167630672454834
2.264448642730713
2.497042655944824
4.807592868804932
4.732181072235107
5.107828140258789
5.032988548278809
4.958017349243164
0.5422670245170593
0.4758901596069336
11.9296875
11.723042488098145
0.7511664628982544
9.026628494262695
12.031540870666504
11.618265151977539
12.556270599365234
12.934877395629883
12.74749755859375
12.794699668884277
12.50786304473877
12.888395309448242
2.8092823028564453
2.9649291038513184
10.6876859664917
10.400543212890625
2.6533074378967285
11.134532928466797
3.120189905166626
11.298099517822266
11.243820190429688
10.968779563903809
10.573551177978516
10.516122817993164
10.63074016571045
2.887150287628174
2.0312325954437256
2.1867825984954834
1.6464256048202515
1.7228792905807495
8.41987133026123
7.955164432525635
8.61574649810791
8.155624389648438
8.680609703063965
8.745231628417969
7.887900352478027
8.354137420654297
8.089019775390625
9.001462936401367
8.485384941101074
7.063699722290039
7.410750389099121
7.341753005981445
6.993703365325928
6.569592475891113
3.58552885055542
3.5082192420959473
6.450433731079102
13.163715362548828
12.526063919067383
4.353001594543457
12.717023849487305
13.087532043457031
12.331257820129395
12.429134368896484
12.950373649597168
12.62202262878418
12.904181480407715
12.764167785644531
13.042049407958984
9.153463363647461
4.656607627868652
6.210728645324707
5.920332908630371
5.553462028503418
5.331348419189453
5.993199348449707
5.700703144073486
6.735508918762207
7.157419204711914
7.296473979949951
14.265517234802246
14.342823028564453
13.947345733642578
13.646087646484375
13.688526153564453
8.873800277709961
7.616547584533691
6.7117204666137695
9.62517261505127
9.253774642944336
10.166417121887207
9.928232192993164
9.440520286560059
5.281633377075195
5.871519088745117
5.577890872955322
4.227132797241211
4.074427604675293
10.014630317687988
10.133869171142578
9.651230812072754
9.894449234008789
11.699782371520996
12.21223258972168
11.48794937133789
11.3805570602417
12.111701011657715
11.80422306060791
13.222482681274414
14.823981285095215
14.784659385681152
10.828551292419434
10.600918769836426
11.272130012512207
10.715222358703613
10.940919876098633
11.162710189819336
2.8389976024627686
13.938321113586426
7.572165012359619
14.019736289978027
14.10024642944336
7.017565727233887
6.876925468444824
14.564435958862305
14.716158866882324
14.56943130493164
0.6405608654022217
5.13268518447876
4.983124732971191
4.682211399078369
4.832949161529541
4.531003952026367
11.565511703491211
0.7973971366882324
11.405806541442871
12.232369422912598
0.9541152715682983
11.826849937438965
1.584114909172058
12.132438659667969
1.111134648323059
8.246513366699219
8.898873329162598
8.770190238952637
7.97939395904541
12.604435920715332
12.700056076049805
12.981122970581055
12.410311698913574
0.48632410168647766
13.072895050048828
11.079524993896484
10.857063293457031
1.2689530849456787
1.4266130924224854
3.459639549255371
3.767850160598755
3.613976240158081
0.06783974170684814
2.21345591545105
2.3702683448791504
2.5267860889434814
2.994673490524292
1.741776466369629
1.8992199897766113
3.14997935295105
13.430362701416016
13.253544807434082
5.430083751678467
6.30678129196167
5.725040912628174
6.017310619354248
0.16887599229812622
4.379343509674072
7.708761692047119
7.434720516204834
8.113377571105957
8.640618324279785
8.510132789611816
14.028234481811523
13.772721290588379
14.336359024047852
14.41327953338623
6.162402153015137
9.773314476013184
9.279313087463379
12.01018238067627
11.594348907470703
11.907697677612305
11.052297592163086
10.369385719299316
10.485629081726074
14.997180938720703
8.378755569458008
13.34241771697998
15.13461971282959
9.404216766357422
20.0
-20.0
-20.0
-20.0
-20.0
-20.0
-19.973079681396484
-20.0
-19.99999237060547
-20.0
-19.994489669799805
-20.0
-20.0
-5.620359897613525
9.68868350982666
-19.999967575073242
-20.0
-20.0
20.0
20.0
-20.0
-20.0
-19.999998092651367
-20.0
-20.0
-19.99997329711914
19.996017456054688
-20.0
-20.0
-20.0
-20.0
-20.0
-20.0
7.760570049285889
-20.0
-19.658708572387695
19.934715270996094
-20.0
-20.0
-20.0
20.0
20.0
20.0
19.999988555908203
19.996864318847656
19.79233169555664
19.987293243408203
20.0
19.999998092651367
19.99980926513672
-3.369117021560669
-18.3170108795166
20.0
20.0
20.0
20.0
20.0
20.0
20.0
20.0
20.0
20.0
20.0
20.0
20.0
20.0
20.0
20.0
20.0
20.0
20.0
20.0
20.0
20.0
20.0
-20.0
20.0
-20.0
20.0
20.0
20.0
-19.99952507019043
20.0
20.0
20.0
20.0
20.0
20.0
20.0
20.0
20.0
20.0
20.0
20.0
20.0
20.0
20.0
-20.0
-20.0
-20.0
-19.999998092651367
-20.0
-20.0
20.0
19.999984741210938
-20.0
-19.993074417114258
-20.0
-19.999874114990234
-19.99962043762207
20.0
-20.0
16.842432022094727
-20.0
20.0
20.0
19.999996185302734
20.0
-19.568239212036133
20.0
20.0
20.0
-19.998184204101562
-20.0
-20.0
-20.0
20.0
19.171567916870117
20.0
20.0
20.0
20.0
20.0
20.0
20.0
-19.89185905456543
-19.999900817871094
20.0
20.0
-20.0
20.0
-20.0
-20.0
-20.0
18.95419692993164
19.9990177154541
-20.0
20.0
20.0
-20.0
19.99995231628418
16.075149536132812
-20.0
-19.91466522216797
-20.0
-18.660789489746094
-20.0
-15.105123519897461
-20.0
-20.0
-20.0
19.73674964904785
-20.0
-20.0
-20.0
-20.0
19.999940872192383
-19.999998092651367
19.999757766723633
20.0
-19.97876739501953
20.0
20.0
20.0
20.0
20.0
20.0
20.0
20.0
20.0
20.0
20.0
20.0
19.999998092651367
20.0
20.0
20.0
20.0
19.94855499267578
19.999225616455078
19.999998092651367
-13.990492820739746
-19.99999237060547
-20.0
-20.0
-20.0
-20.0
-20.0
-19.998554229736328
19.983869552612305
-20.0
-20.0
-20.0
20.0
15.249543190002441
15.231890678405762
15.245964050292969
15.202051162719727
0.0012071430683135986
0.06819973140954971
-0.12232129275798798
0.002840000204741955
-0.09413144737482071
-0.06617758423089981
0.19317397475242615
0.1777593493461609
0.22393064200878143
0.16411805152893066
0.4095227122306824
0.3455365300178528
15.168534278869629
15.18896198272705
0.11805862933397293
0.048610880970954895
0.6109298467636108
0.5603363513946533
0.5630911588668823
0.5822097063064575
1.3401288986206055
1.2661406993865967
0.7694631814956665
0.8222962021827698
1.9533729553222656
1.9098402261734009
0.3358084261417389
0.3677937686443329
1.0324413776397705
1.0426485538482666
3.197920799255371
3.175748348236084
2.5467381477355957
2.5752053260803223
5.182496070861816
5.125025749206543
3.816823720932007
3.7550246715545654
6.498237133026123
6.456456184387207
1.1153017282485962
1.0330685377120972
15.133703231811523
15.135978698730469
4.478977203369141
4.505059242248535
3.9212629795074463
3.953274726867676
15.127272605895996
15.100542068481445
7.782337665557861
7.820441246032715
6.593328475952148
6.646857261657715
5.207226753234863
5.237547874450684
7.875099182128906
7.844519138336182
1.516716480255127
1.5053675174713135
9.125434875488281
9.090169906616211
14.952248573303223
14.927223205566406
11.355173110961914
11.326473236083984
14.948119163513184
14.9647798538208
10.253921508789062
10.284003257751465
10.252132415771484
10.283658981323242
9.06495189666748
9.030745506286621
11.335027694702148
11.352081298828125
3.3374624252319336
3.3049156665802
2.6829895973205566
2.6963491439819336
4.6066389083862305
4.621527671813965
12.26070785522461
12.281959533691406
13.11843490600586
13.141617774963379
2.056426525115967
2.0713014602661133
13.132770538330078
13.119972229003906
14.47919750213623
14.451409339904785
13.855987548828125
13.86974811553955
13.865561485290527
13.850035667419434
13.529119491577148
13.510856628417969
14.491482734680176
14.494792938232422
14.187335014343262
14.169784545898438
13.541058540344238
13.517361640930176
14.195928573608398
14.179858207702637
15.031831741333008
15.05919075012207
12.344608306884766
12.311800956726074
15.068075180053711
15.052877426147461
14.752309799194336
14.745599746704102
14.712113380432129
14.736845016479492
9.376959800720215
9.341880798339844
14.979570388793945
10.351048469543457
13.591595649719238
13.208747863769531
14.820618629455566
12.078176498413086
3.0723836421966553
3.1090056896209717
6.129593372344971
6.089944839477539
11.694618225097656
10.772007942199707
7.776737689971924
9.834000587463379
9.861150741577148
3.7384090423583984
4.908110618591309
1.8205267190933228
12.84166145324707
12.45920181274414
11.647194862365723
12.061070442199707
13.936323165893555
1.8282909393310547
8.834646224975586
8.312751770019531
1.2061920166015625
3.690960168838501
1.1900525093078613
2.483616352081299
10.819808959960938
14.831372261047363
5.504068851470947
12.503103256225586
4.9311418533325195
6.686892509460449
12.862083435058594
8.861305236816406
8.36493968963623
2.4485552310943604
4.313277244567871
4.303303241729736
5.561733245849609
10.543386459350586
7.22705602645874
11.999512672424316
7.261224746704102
13.987907409667969
14.374929428100586
13.242805480957031
11.25547981262207
14.398531913757324
13.96926498413086
11.036296844482422
14.526987075805664
14.537554740905762
8.1800537109375
8.57548713684082
12.38170051574707
10.996731758117676
13.307718276977539
13.423990249633789
14.532218933105469
11.21754264831543
11.959061622619629
8.591350555419922
8.220003128051758
8.444555282592773
10.560912132263184
13.29809284210205
8.809629440307617
13.386507987976074
14.30428409576416
14.29845905303955
14.891902923583984
10.204797744750977
9.675597190856934
6.640758991241455
10.427627563476562
13.756608963012695
9.361296653747559
10.074377059936523
2.9168906211853027
8.762743949890137
13.730733871459961
13.814469337463379
11.10761833190918
5.824516296386719
9.216512680053711
2.9317307472229004
9.378509521484375
6.277700424194336
6.234681606292725
5.798364639282227
11.76565933227539
11.575337409973145
9.712390899658203
9.466318130493164
9.686264991760254
14.788249969482422
5.432528972625732
6.065873622894287
14.859502792358398
14.606438636779785
14.060108184814453
8.480616569519043
13.311260223388672
13.979135513305664
6.602030277252197
12.262145042419434
11.752124786376953
13.614608764648438
11.541271209716797
0.26094797253608704
3.9706430435180664
10.102596282958984
12.652359962463379
9.246278762817383
9.490328788757324
13.027128219604492
9.74500560760498
7.6655144691467285
3.2274973392486572
6.9993085861206055
8.724175453186035
5.761490345001221
0.8951016664505005
11.775068283081055
11.980729103088379
11.459288597106934
11.670775413513184
12.082110404968262
3.324037790298462
8.04648494720459
13.599549293518066
14.250503540039062
8.222013473510742
2.193376302719116
14.652853012084961
7.520149230957031
2.346308469772339
5.479585647583008
5.774083137512207
13.30447006225586
4.455231666564941
11.512528419494629
11.878390312194824
12.182523727416992
8.016141891479492
8.51171875
0.8757795095443726
3.3532776832580566
4.88287878036499
4.580912113189697
0.9033503532409668
0.753554105758667
2.419590711593628
5.083670616149902
5.704392910003662
0.7189900279045105
14.096375465393066
13.995906829833984
11.024273872375488
1.425234317779541
1.7261343002319336
14.638704299926758
4.855228900909424
1.4933555126190186
2.73134708404541
1.7992820739746094
1.6629717350006104
3.0425965785980225
5.057971477508545
12.650472640991211
12.567124366760254
12.779834747314453
7.503545761108398
1.1900126934051514
6.947351455688477
5.9928388595581055
6.378698825836182
3.42728590965271
1.3477942943572998
6.521965980529785
3.6627273559570312
1.6871178150177002
10.80084228515625
10.342392921447754
2.1090497970581055
11.189298629760742
10.913043022155762
2.6763110160827637
2.974545955657959
1.9778542518615723
12.474767684936523
12.36256217956543
12.84318733215332
12.987204551696777
10.465003967285156
11.127419471740723
7.640559196472168
3.949894666671753
2.0729002952575684
5.355937480926514
0.3971365690231323
14.838113784790039
10.72797966003418
10.458452224731445
10.744391441345215
2.3385846614837646
1.362685203552246
8.090636253356934
7.704546928405762
14.399377822875977
7.159884452819824
7.466053009033203
8.705509185791016
13.473983764648438
7.203117370605469
7.479560375213623
8.18227481842041
0.03533996269106865
6.007953643798828
2.2918877601623535
11.446581840515137
8.28818416595459
8.022199630737305
11.96123218536377
8.550676345825195
11.183174133300781
10.889902114868164
10.988042831420898
10.451936721801758
15.030899047851562
4.810091018676758
4.483190536499023
4.276801109313965
9.831803321838379
10.007606506347656
2.7959485054016113
9.476457595825195
11.862871170043945
11.762991905212402
12.070245742797852
11.633272171020508
12.166040420532227
14.58216667175293
4.150833606719971
13.046378135681152
12.666866302490234
3.629934787750244
3.5470268726348877
6.3548665046691895
4.75766134262085
6.4249067306518555
4.044948577880859
4.1932268142700195
12.669641494750977
12.996330261230469
12.574162483215332
5.651549339294434
5.944500923156738
4.23806619644165
7.949854850769043
10.193120002746582
10.658191680908203
2.6049182415008545
12.85774040222168
12.477713584899902
12.380317687988281
7.087600231170654
7.365708351135254
8.928205490112305
5.37479829788208
5.847292900085449
13.627010345458984
3.8446056842803955
13.906572341918945
14.108238220214844
12.794699668884277
9.563860893249512
14.068347930908203
6.890718936920166
6.737198352813721
7.13076639175415
7.394497871398926
6.330875396728516
3.5368621349334717
7.548165321350098
12.556270599365234
10.107221603393555
9.128116607666016
11.434382438659668
12.162088394165039
12.934877395629883
9.98843765258789
8.962857246398926
9.002994537353516
14.894817352294922
13.423988342285156
13.671021461486816
11.856088638305664
14.297569274902344
9.626904487609863
13.714213371276855
13.776764869689941
13.819000244140625
6.13839054107666
4.162898540496826
14.226540565490723
6.806321620941162
5.257009506225586
14.419255256652832
7.27253532409668
9.19105339050293
6.782508850097656
6.923493385314941
1.56990385055542
14.601677894592285
10.63074016571045
14.331628799438477
14.042240142822266
7.106557369232178
7.636770725250244
4.409128665924072
5.00869083404541
11.11594009399414
6.250755310058594
5.369961261749268
5.5760955810546875
14.361501693725586
11.243820190429688
10.516122817993164
9.95561695098877
9.537367820739746
9.789462089538574
9.306589126586914
3.4308016300201416
8.937746047973633
14.661182403564453
10.914807319641113
14.760951042175293
10.064716339111328
4.078866481781006